 Gaussian 16, Revision A.03,
 Gaussian 16:  ES64L-G16RevA.03 25-Dec-2016

 -------------------------------------------------------------------
 #P opt freq m062x/6-311++g(d,p) geom=connectivity temperature=0.001
 -------------------------------------------------------------------

 -----------------
 imidazole neutral
 -----------------
 Symbolic Z-matrix:
 Charge =  0 Multiplicity = 1

 SCF Done:  E(RM062X) =  -999.575178341     A.U. after   17 cycles
 SCF Done:  E(RM062X) =  -999.645674427     A.U. after   15 cycles
 SCF Done:  E(RM062X) =  -999.686215588     A.U. after   15 cycles
 SCF Done:  E(RM062X) =  -999.704837626     A.U. after   14 cycles
 SCF Done:  E(RM062X) =  -999.707044407     A.U. after   14 cycles
 SCF Done:  E(RM062X) =  -999.708628278     A.U. after   13 cycles
 SCF Done:  E(RM062X) =  -999.708524568     A.U. after   13 cycles
 SCF Done:  E(RM062X) =  -999.708924335     A.U. after   12 cycles
 SCF Done:  E(RM062X) =  -999.708987112     A.U. after   12 cycles
 SCF Done:  E(RM062X) =  -999.709015302     A.U. after   13 cycles
 SCF Done:  E(RM062X) =  -999.713509574     A.U. after   13 cycles
 SCF Done:  E(RM062X) =  -999.713773064     A.U. after   13 cycles
 SCF Done:  E(RM062X) =  -999.713896854     A.U. after   13 cycles
 SCF Done:  E(RM062X) =  -999.713934720     A.U. after   12 cycles
 SCF Done:  E(RM062X) =  -999.713952706     A.U. after   12 cycles
 SCF Done:  E(RM062X) =  -999.713963157     A.U. after   12 cycles
 SCF Done:  E(RM062X) =  -999.713968379     A.U. after   11 cycles
 SCF Done:  E(RM062X) =  -999.713971647     A.U. after   11 cycles
 SCF Done:  E(RM062X) =  -999.713972189     A.U. after    9 cycles
 Optimization completed.
    -- Stationary point found.
 Normal termination of Gaussian 16 at Mon Oct 14 09:14:28 2019.

 ----------------------------------------------------------------------
 #P Geom=AllCheck Guess=TCheck SCRF=Check GenChk RM062X/6-311++G(d,p) F
 req
 ----------------------------------------------------------------------

 Structure from the checkpoint file:  "01.chk"
 -----------------
 imidazole neutral
 -----------------
 Charge =  0 Multiplicity = 1

                         Standard orientation:
 ---------------------------------------------------------------------
 Center     Atomic      Atomic             Coordinates (Angstroms)
 Number     Number       Type             X           Y           Z
 ---------------------------------------------------------------------
      1         16           0       -0.000021    1.173273    0.053356
      2          8           0       -0.000035    1.792184    1.342969
      3          8           0       -0.000108    1.863868   -1.199974
      4          7           0       -1.320455    0.142200    0.018718
      5          6           0       -1.917277   -0.382962   -1.117209
      6          6           0       -1.871800   -0.521576    1.111559
      7          1           0       -1.656367   -0.027091   -2.102356
      8          6           0       -2.778687   -1.376758    0.573218
      9          1           0       -1.583591   -0.278914    2.120199
     10          1           0       -3.435480   -2.054114    1.094228
     11          7           0        1.320811    0.142522    0.018652
     12          6           0        1.917395   -0.382864   -1.117190
     13          6           0        1.871879   -0.521355    1.111505
     14          6           0        2.778518   -1.376892    0.573199
     15          1           0        1.583879   -0.278542    2.120166
     16          1           0        3.435060   -2.054425    1.094300
     17          7           0       -2.796908   -1.279817   -0.806723
     18          7           0        2.796721   -1.280083   -0.806689
     19          1           0        1.656639   -0.027012   -2.102382
 ---------------------------------------------------------------------

 SCF Done:  E(RM062X) =  -999.713972189     A.U. after    1 cycles

 The electronic state is 1-A.
 Alpha  occ. eigenvalues --  -90.20151 -19.68344 -19.68343 -14.86107 -14.86106
 Alpha  occ. eigenvalues --  -14.76985 -14.76983 -10.63928 -10.63926 -10.61083
 Alpha  occ. eigenvalues --  -10.61081 -10.59061 -10.59060  -8.53887  -6.46132
 Alpha  occ. eigenvalues --   -6.46114  -6.46068  -1.33085  -1.20932  -1.17589
 Alpha  occ. eigenvalues --   -1.17485  -1.04218  -1.02271  -0.89436  -0.88533
 Alpha  occ. eigenvalues --   -0.83388  -0.76079  -0.72475  -0.71669  -0.68959
 Alpha  occ. eigenvalues --   -0.68487  -0.66191  -0.60110  -0.58524  -0.57682
 Alpha  occ. eigenvalues --   -0.55394  -0.54383  -0.54299  -0.54049  -0.51754
 Alpha  occ. eigenvalues --   -0.51457  -0.48525  -0.47251  -0.46023  -0.45166
 Alpha  occ. eigenvalues --   -0.41051  -0.37875  -0.37777  -0.37538  -0.33471
 Alpha  occ. eigenvalues --   -0.32358
 Alpha virt. eigenvalues --   -0.02608  -0.00970   0.00419   0.00649   0.01507
 Alpha virt. eigenvalues --    0.01581   0.02862   0.03020   0.03675   0.03808
 Alpha virt. eigenvalues --    0.04503   0.05518   0.05654   0.05755   0.06677

 Mulliken charges:
               1
     1  S   -0.013973
     2  O   -0.104263
     3  O   -0.145558
     4  N    0.020514
     5  C   -0.116586
     6  C   -0.097937
     7  H    0.219263
     8  C   -0.239238
     9  H    0.209934
    10  H    0.217519
    11  N    0.020673
    12  C   -0.116818
    13  C   -0.097865
    14  C   -0.239312
    15  H    0.209981
    16  H    0.217506
    17  N   -0.081570
    18  N   -0.081542
    19  H    0.219271
 Sum of Mulliken charges =  -0.00000

 Dipole moment (field-independent basis, Debye):
    X=             -0.0006    Y=             -0.6660    Z=              2.3297  Tot=              2.4231
 Quadrupole moment (field-independent basis, Debye-Ang):
   XX=            -89.2581   YY=            -91.0877   ZZ=            -77.4504
   XY=              0.0023   XZ=             -0.0008   YZ=             -7.2345

  Exact polarizability: 121.595  -0.000  99.656   0.000  -2.031 111.086
 Approx polarizability: 136.432   0.001 132.102   0.001  -0.856 161.525

                      1                      2                      3
                      A                      A                      A
 Frequencies --     40.6218                45.1653                74.7719
 Red. masses --      3.9459                 7.9092                 4.1490
 Frc consts  --      0.0038                 0.0095                 0.0137
 IR Inten    --      0.7947                 0.1147                 0.9223

                      4                      5                      6
                      A                      A                      A
 Frequencies --    113.3097               183.0315               214.1414
 Red. masses --      7.3130                 7.2984                 7.1517
 Frc consts  --      0.0553                 0.1441                 0.1932
 IR Inten    --      7.8054                 6.8842                 0.3682

                      7                      8                      9
                      A                      A                      A
 Frequencies --    314.2608               363.1724               364.2203
 Red. masses --      6.8133                10.2262                 9.8619
 Frc consts  --      0.3965                 0.7947                 0.7708
 IR Inten    --      0.1248                 0.3117                 1.5214

                     10                     11                     12
                      A                      A                      A
 Frequencies --    376.5518               505.2520               580.2372
 Red. masses --      7.1452                 8.9259                10.0958
 Frc consts  --      0.5969                 1.3425                 2.0026
 IR Inten    --      0.0217                 0.4000                52.5951

                     13                     14                     15
                      A                      A                      A
 Frequencies --    586.3883               628.4487               654.4228
 Red. masses --      3.7573                 4.7930                 8.2264
 Frc consts  --      0.7612                 1.1153                 2.0758
 IR Inten    --     25.9487                61.9053               203.4079

                     16                     17                     18
                      A                      A                      A
 Frequencies --    665.4361               667.0484               752.9333
 Red. masses --      4.2919                 3.6361                 1.2361
 Frc consts  --      1.1197                 0.9532                 0.4129
 IR Inten    --    160.6016                33.2335                66.0680

                     19                     20                     21
                      A                      A                      A
 Frequencies --    765.2839               849.4078               858.6133
 Red. masses --      1.2239                 1.3723                 1.3518
 Frc consts  --      0.4223                 0.5833                 0.5872
 IR Inten    --     29.5755                37.8007                14.9933

                     22                     23                     24
                      A                      A                      A
 Frequencies --    907.1929               908.4561               912.1014
 Red. masses --      4.2481                 5.6967                 1.5326
 Frc consts  --      2.0599                 2.7700                 0.7512
 IR Inten    --      3.8450                 6.4185                 1.9888

                     25                     26                     27
                      A                      A                      A
 Frequencies --    914.6917              1005.1346              1020.0822
 Red. masses --      1.3996                 5.6321                 4.8731
 Frc consts  --      0.6899                 3.3525                 2.9876
 IR Inten    --      0.7598                10.2004                 0.6275

                     28                     29                     30
                      A                      A                      A
 Frequencies --   1068.9327              1085.7596              1138.7092
 Red. masses --      1.4847                 1.3945                 2.0513
 Frc consts  --      0.9995                 0.9686                 1.5672
 IR Inten    --    256.0836                62.8926                 0.2090

                     31                     32                     33
                      A                      A                      A
 Frequencies --   1139.2810              1185.4334              1187.4343
 Red. masses --      1.7394                 2.9407                 7.7215
 Frc consts  --      1.3302                 2.4347                 6.4146
 IR Inten    --     38.2451               248.8544                25.4355

                     34                     35                     36
                      A                      A                      A
 Frequencies --   1213.2747              1277.2724              1280.3408
 Red. masses --      4.8225                 1.2983                 1.2914
 Frc consts  --      4.1825                 1.2479                 1.2473
 IR Inten    --    325.0815                 9.7350                17.1078

                     37                     38                     39
                      A                      A                      A
 Frequencies --   1310.1699              1324.6687              1402.4800
 Red. masses --      6.7205                 8.4164                 2.9650
 Frc consts  --      6.7968                 8.7015                 3.4362
 IR Inten    --      7.5066                16.6521                26.6182

                     40                     41                     42
                      A                      A                      A
 Frequencies --   1407.3731              1450.1279              1515.3929
 Red. masses --      3.2081                18.4992                 4.4296
 Frc consts  --      3.7438                22.9201                 5.9932
 IR Inten    --      9.4608               198.8547                52.3436

                     43                     44                     45
                      A                      A                      A
 Frequencies --   1527.4188              1600.0234              1601.3624
 Red. masses --      4.4123                 5.4677                 5.4711
 Frc consts  --      6.0650                 8.2473                 8.2662
 IR Inten    --     27.9802                25.1546                20.7893

                     46                     47                     48
                      A                      A                      A
 Frequencies --   3283.3039              3284.0939              3285.6731
 Red. masses --      1.0979                 1.0974                 1.0943
 Frc consts  --      6.9734                 6.9737                 6.9605
 IR Inten    --      0.6197                 6.7718                 1.3439

                     49                     50                     51
                      A                      A                      A
 Frequencies --   3285.9625              3313.4193              3314.3949
 Red. masses --      1.0951                 1.1069                 1.1067
 Frc consts  --      6.9665                 7.1602                 7.1629
 IR Inten    --     17.6655                 2.1601                 9.6827

 - Thermochemistry -
 -------------------
 Temperature     0.001 Kelvin.  Pressure   1.00000 Atm.
 Atom     1 has atomic number 16 and mass  31.97207

 Molecular mass:   198.02115 amu.
 Principal axes and moments of inertia in atomic units:
                           1         2         3
     Eigenvalues --  1498.263012919.914053291.44958
           X            1.00000   0.00000  -0.00000
           Y           -0.00000   0.99856  -0.05367
           Z            0.00000   0.05367   0.99856
 This molecule is an asymmetric top.
 Rotational symmetry number  1.
 Warning -- assumption of classical behavior for rotation
           may cause significant error
 Rotational temperatures (Kelvin)      0.05781     0.02966     0.02631
 Rotational constants (GHZ):           1.20456     0.61808     0.54831
 Zero-point vibrational energy     351419.1 (Joules/Mol)
                                   83.99117 (Kcal/Mol)
 Vibrational temperatures:     58.45    64.98   107.58   163.03   263.34
          (Kelvin)            308.10   452.15   522.52   524.03   541.77
                              726.94   834.83   843.68   904.20   941.57
                              957.41   959.73  1083.30  1101.07  1222.11
                             1235.35  1305.25  1307.07  1312.31  1316.04
                             1446.16  1467.67  1537.96  1562.17  1638.35
                             1639.17  1705.57  1708.45  1745.63  1837.71
                             1842.12  1885.04  1905.90  2017.86  2024.90
                             2086.41  2180.31  2197.61  2302.08  2304.00
                             4723.94  4725.08  4727.35  4727.77  4767.27
                             4768.68

 Zero-point correction=                           0.133848 (Hartree/Particle)
 Thermal correction to Energy=                    0.133848
 Thermal correction to Enthalpy=                  0.133848
 Thermal correction to Gibbs Free Energy=         0.133849
 Sum of electronic and zero-point Energies=           -999.580124
 Sum of electronic and thermal Energies=              -999.580124
 Sum of electronic and thermal Enthalpies=            -999.580124
 Sum of electronic and thermal Free Energies=         -999.580124

                     E (Thermal)             CV                S
                      KCal/Mol        Cal/Mol-Kelvin    Cal/Mol-Kelvin
 Total                   83.991              5.962            -27.399
 Electronic               0.000              0.000              0.000
 Translational            0.000              2.981            -20.869
 Rotational               0.000              2.981             -6.530
 Vibrational             83.991              0.000              0.000

 Optimization completed.
    -- Stationary point found.
 Normal termination of Gaussian 16 at Mon Oct 14 09:17:29 2019.
