 Gaussian 16, Revision A.03,
 Gaussian 16:  ES64L-G16RevA.03 25-Dec-2016

 -------------------------------------------------------------------
 #p opt freq m062x/6-311++g(d,p) geom=connectivity temperature=0.001
 -------------------------------------------------------------------

 -----------------
 imidazole neutral
 -----------------
 Symbolic Z-matrix:
 Charge =  1 Multiplicity = 1

 SCF Done:  E(RM062X) =  -999.871280071     A.U. after   17 cycles
 SCF Done:  E(RM062X) =  -999.936998289     A.U. after   14 cycles
 SCF Done:  E(RM062X) =  -999.970454394     A.U. after   14 cycles
 SCF Done:  E(RM062X) =  -999.986102856     A.U. after   14 cycles
 SCF Done:  E(RM062X) =  -999.988397087     A.U. after   13 cycles
 SCF Done:  E(RM062X) =  -999.989951167     A.U. after   13 cycles
 SCF Done:  E(RM062X) =  -999.990287589     A.U. after   12 cycles
 SCF Done:  E(RM062X) =  -999.990584925     A.U. after   12 cycles
 SCF Done:  E(RM062X) =  -999.990837954     A.U. after   12 cycles
 SCF Done:  E(RM062X) =  -999.990952972     A.U. after   13 cycles
 SCF Done:  E(RM062X) =  -999.991083771     A.U. after   11 cycles
 SCF Done:  E(RM062X) =  -999.991101386     A.U. after   12 cycles
 SCF Done:  E(RM062X) =  -999.991133405     A.U. after   12 cycles
 SCF Done:  E(RM062X) =  -999.991159950     A.U. after   12 cycles
 SCF Done:  E(RM062X) =  -999.991171861     A.U. after   11 cycles
 SCF Done:  E(RM062X) =  -999.991181829     A.U. after   11 cycles
 SCF Done:  E(RM062X) =  -999.991186683     A.U. after   11 cycles
 SCF Done:  E(RM062X) =  -999.991187282     A.U. after   10 cycles
 SCF Done:  E(RM062X) =  -999.991187289     A.U. after    9 cycles
 Optimization completed.
    -- Stationary point found.
 Normal termination of Gaussian 16 at Thu Jan  2 15:38:39 2020.

 ----------------------------------------------------------------------
 #P Geom=AllCheck Guess=TCheck SCRF=Check GenChk RM062X/6-311++G(d,p) F
 req
 ----------------------------------------------------------------------

 Structure from the checkpoint file:  "01_p_b.chk"
 -----------------
 imidazole neutral
 -----------------
 Charge =  1 Multiplicity = 1

                         Standard orientation:
 ---------------------------------------------------------------------
 Center     Atomic      Atomic             Coordinates (Angstroms)
 Number     Number       Type             X           Y           Z
 ---------------------------------------------------------------------
      1         16           0       -0.073502    1.070621    0.054645
      2          8           0       -0.214075    2.063463    1.059489
      3          8           0       -0.150287    1.622534   -1.409000
      4          7           0       -1.209930   -0.070265    0.102963
      5          6           0       -1.091688   -1.451469   -0.233294
      6          6           0       -2.590548    0.174057    0.308231
      7          1           0       -0.130460   -1.904054   -0.435713
      8          6           0       -3.175798   -1.025324    0.113585
      9          1           0       -2.959059    1.146858    0.590360
     10          1           0       -4.223816   -1.264427    0.197794
     11          7           0        1.341922    0.286832    0.056155
     12          6           0        1.985128   -0.331602   -1.058270
     13          6           0        1.897747   -0.310171    1.215105
     14          6           0        2.830104   -1.164083    0.742715
     15          1           0        1.593829   -0.011891    2.205912
     16          1           0        3.503804   -1.782337    1.314301
     17          7           0       -2.240451   -2.003556   -0.212823
     18          7           0        2.865263   -1.160404   -0.648951
     19          1           0        1.723180   -0.066221   -2.072399
     20          1           0        0.156157    2.547458   -1.488332
 ---------------------------------------------------------------------

 SCF Done:  E(RM062X) =  -999.991187289     A.U. after    1 cycles

 The electronic state is 1-A.
 Alpha  occ. eigenvalues --  -90.40471 -19.92642 -19.87719 -15.03983 -15.03547
 Alpha  occ. eigenvalues --  -14.92916 -14.92122 -10.80467 -10.79909 -10.76993
 Alpha  occ. eigenvalues --  -10.76316 -10.74561 -10.73825  -8.74279  -6.66551
 Alpha  occ. eigenvalues --   -6.66458  -6.66433  -1.53069  -1.41979  -1.35155
 Alpha  occ. eigenvalues --   -1.33367  -1.23031  -1.19312  -1.07050  -1.04173
 Alpha  occ. eigenvalues --   -1.01646  -0.94422  -0.92543  -0.87734  -0.86940
 Alpha  occ. eigenvalues --   -0.84303  -0.83816  -0.82561  -0.76148  -0.73965
 Alpha  occ. eigenvalues --   -0.73107  -0.71858  -0.71025  -0.70117  -0.69535
 Alpha  occ. eigenvalues --   -0.69005  -0.66229  -0.65561  -0.65342  -0.64713
 Alpha  occ. eigenvalues --   -0.56459  -0.55390  -0.53054  -0.52319  -0.49158
 Alpha  occ. eigenvalues --   -0.47782
 Alpha virt. eigenvalues --   -0.18362  -0.17924  -0.15714  -0.12832  -0.11762
 Alpha virt. eigenvalues --   -0.10832  -0.10200  -0.09581  -0.09451  -0.09130
 Alpha virt. eigenvalues --   -0.08577  -0.08363  -0.07448  -0.06981  -0.06467

 Mulliken charges:
               1
     1  S    0.266905
     2  O    0.052129
     3  O   -0.098991
     4  N   -0.043631
     5  C   -0.157883
     6  C   -0.202044
     7  H    0.222710
     8  C   -0.054776
     9  H    0.238594
    10  H    0.278368
    11  N   -0.168845
    12  C   -0.139685
    13  C   -0.066962
    14  C   -0.275181
    15  H    0.272187
    16  H    0.270783
    17  N   -0.008141
    18  N   -0.022837
    19  H    0.254593
    20  H    0.382706
 Sum of Mulliken charges =   1.00000

 Dipole moment (field-independent basis, Debye):
    X=             -0.1525    Y=              3.8057    Z=             -0.2653  Tot=              3.8180
 Quadrupole moment (field-independent basis, Debye-Ang):
   XX=            -60.2031   YY=            -71.4449   ZZ=            -72.5403
   XY=             -2.7411   XZ=              2.1536   YZ=             -9.7780

  Exact polarizability: 131.272  -6.219 107.817  -2.001   2.615  88.731
 Approx polarizability: 152.070 -11.375 150.014  -4.887   9.681 125.334

                      1                      2                      3
                      A                      A                      A
 Frequencies --     35.4596                52.6725                72.8243
 Red. masses --      4.8490                 4.8821                 6.4457
 Frc consts  --      0.0036                 0.0080                 0.0201
 IR Inten    --      1.6125                 0.3375                 0.9459

                      4                      5                      6
                      A                      A                      A
 Frequencies --     88.7563               184.4542               199.4654
 Red. masses --      4.9820                 7.5899                 5.3720
 Frc consts  --      0.0231                 0.1521                 0.1259
 IR Inten    --      4.5565                 7.4596                 5.2238

                      7                      8                      9
                      A                      A                      A
 Frequencies --    277.8169               335.5281               349.5173
 Red. masses --      2.1081                 6.8529                 3.4825
 Frc consts  --      0.0959                 0.4545                 0.2507
 IR Inten    --     57.1755                 8.4369                28.3831

                     10                     11                     12
                      A                      A                      A
 Frequencies --    362.3824               381.2791               462.6283
 Red. masses --      5.5384                 2.3734                 7.9856
 Frc consts  --      0.4285                 0.2033                 1.0070
 IR Inten    --      2.4034                48.2340                 0.1444

                     13                     14                     15
                      A                      A                      A
 Frequencies --    544.2529               584.0019               587.9998
 Red. masses --      6.1500                 4.1672                 4.7073
 Frc consts  --      1.0733                 0.8374                 0.9589
 IR Inten    --     44.8627                11.5864                34.2685

                     16                     17                     18
                      A                      A                      A
 Frequencies --    636.9000               644.2321               666.7140
 Red. masses --      3.5533                 3.7157                11.7908
 Frc consts  --      0.8492                 0.9086                 3.0880
 IR Inten    --     15.5970                 8.5465               231.5876

                     19                     20                     21
                      A                      A                      A
 Frequencies --    738.3399               755.9065               827.1560
 Red. masses --      1.2379                 1.2442                 1.3631
 Frc consts  --      0.3976                 0.4189                 0.5495
 IR Inten    --     29.5738                40.4231                18.2369

                     22                     23                     24
                      A                      A                      A
 Frequencies --    845.0459               880.8131               882.1291
 Red. masses --      1.3378                 6.7099                 6.5607
 Frc consts  --      0.5629                 3.0671                 3.0079
 IR Inten    --     37.2359                 2.3413                 9.6190

                     25                     26                     27
                      A                      A                      A
 Frequencies --    898.5000               936.8259               943.7683
 Red. masses --     10.8410                 1.3615                 1.3693
 Frc consts  --      5.1565                 0.7040                 0.7186
 IR Inten    --    225.4587                 3.4740                 2.3351

                     28                     29                     30
                      A                      A                      A
 Frequencies --    962.1349               983.4322              1074.5851
 Red. masses --      4.1893                 4.9934                 1.8985
 Frc consts  --      2.2849                 2.8454                 1.2917
 IR Inten    --    102.5125                55.6408               142.1102

                     31                     32                     33
                      A                      A                      A
 Frequencies --   1075.9988              1120.5565              1128.7945
 Red. masses --      1.8454                 1.3342                 2.2925
 Frc consts  --      1.2588                 0.9870                 1.7210
 IR Inten    --    155.7124                91.0317                25.3077

                     34                     35                     36
                      A                      A                      A
 Frequencies --   1132.3008              1186.6227              1192.1557
 Red. masses --      2.5159                 2.4761                 2.5701
 Frc consts  --      1.9005                 2.0542                 2.1522
 IR Inten    --     23.6331               173.3649               291.4679

                     37                     38                     39
                      A                      A                      A
 Frequencies --   1217.4471              1220.4683              1278.2868
 Red. masses --      5.3409                 5.6721                 1.1925
 Frc consts  --      4.6641                 4.9779                 1.1481
 IR Inten    --     40.0601                37.5407                 6.2749

                     40                     41                     42
                      A                      A                      A
 Frequencies --   1287.8876              1379.6934              1383.0818
 Red. masses --      1.1787                 2.0935                 3.0894
 Frc consts  --      1.1519                 2.3480                 3.4820
 IR Inten    --      2.4704                18.5657                80.1084

                     43                     44                     45
                      A                      A                      A
 Frequencies --   1390.8977              1549.1001              1554.2987
 Red. masses --      4.4409                 5.3541                 5.3610
 Frc consts  --      5.0619                 7.5700                 7.6308
 IR Inten    --    202.9087                10.2151                12.1010

                     46                     47                     48
                      A                      A                      A
 Frequencies --   1636.3452              1640.9753              3262.7432
 Red. masses --      6.4046                 6.4842                 1.1019
 Frc consts  --     10.1039                10.2875                 6.9113
 IR Inten    --     36.3183                33.2281                11.8312

                     49                     50                     51
                      A                      A                      A
 Frequencies --   3274.4640              3284.0977              3286.6083
 Red. masses --      1.1018                 1.0927                 1.0931
 Frc consts  --      6.9604                 6.9436                 6.9568
 IR Inten    --     24.4390                24.5079                21.4923

                     52                     53                     54
                      A                      A                      A
 Frequencies --   3303.3953              3308.2130              3698.6586
 Red. masses --      1.1116                 1.1108                 1.0668
 Frc consts  --      7.1471                 7.1624                 8.5981
 IR Inten    --     14.0488                15.2707               402.0643

 - Thermochemistry -
 -------------------
 Temperature     0.001 Kelvin.  Pressure   1.00000 Atm.
 Atom     1 has atomic number 16 and mass  31.97207

 Molecular mass:   199.02897 amu.
 Principal axes and moments of inertia in atomic units:
                           1         2         3
     Eigenvalues --  1451.535062819.152213485.66599
           X            0.99995  -0.00971   0.00329
           Y            0.00979   0.99963  -0.02543
           Z           -0.00305   0.02546   0.99967
 This molecule is an asymmetric top.
 Rotational symmetry number  1.
 Warning -- assumption of classical behavior for rotation
           may cause significant error
 Rotational temperatures (Kelvin)      0.05967     0.03072     0.02485
 Rotational constants (GHZ):           1.24333     0.64017     0.51776
 Zero-point vibrational energy     376755.6 (Joules/Mol)
                                   90.04674 (Kcal/Mol)
 Vibrational temperatures:     51.02    75.78   104.78   127.70   265.39
          (Kelvin)            286.99   399.72   482.75   502.88   521.39
                              548.58   665.62   783.06   840.25   846.00
                              916.36   926.91   959.25  1062.31  1087.58
                             1190.09  1215.83  1267.29  1269.19  1292.74
                             1347.88  1357.87  1384.30  1414.94  1546.09
                             1548.12  1612.23  1624.08  1629.13  1707.29
                             1715.25  1751.63  1755.98  1839.17  1852.98
                             1985.07  1989.95  2001.19  2228.81  2236.29
                             2354.34  2361.00  4694.36  4711.22  4725.08
                             4728.70  4752.85  4759.78  5321.54

 Zero-point correction=                           0.143499 (Hartree/Particle)
 Thermal correction to Energy=                    0.143499
 Thermal correction to Enthalpy=                  0.143499
 Thermal correction to Gibbs Free Energy=         0.143499
 Sum of electronic and zero-point Energies=           -999.847689
 Sum of electronic and thermal Energies=              -999.847689
 Sum of electronic and thermal Enthalpies=            -999.847689
 Sum of electronic and thermal Free Energies=         -999.847689

                     E (Thermal)             CV                S
                      KCal/Mol        Cal/Mol-Kelvin    Cal/Mol-Kelvin
 Total                   90.047              5.962            -27.394
 Electronic               0.000              0.000              0.000
 Translational            0.000              2.981            -20.854
 Rotational               0.000              2.981             -6.540
 Vibrational             90.047              0.000              0.000

 Optimization completed.
    -- Stationary point found.
 Normal termination of Gaussian 16 at Thu Jan  2 15:41:57 2020.
