 Gaussian 16, Revision A.03,
 Gaussian 16:  ES64L-G16RevA.03 25-Dec-2016

 -------------------------------------------------------------------
 #P opt freq m062x/6-311++g(d,p) geom=connectivity temperature=0.001
 -------------------------------------------------------------------

 ----------------------
 imidazole n protonated
 ----------------------
 Symbolic Z-matrix:
 Charge =  1 Multiplicity = 1

 SCF Done:  E(RM062X) =  -999.906792916     A.U. after   19 cycles
 SCF Done:  E(RM062X) =  -999.980194504     A.U. after   14 cycles
 SCF Done:  E(RM062X) =  -1000.03858611     A.U. after   14 cycles
 SCF Done:  E(RM062X) =  -1000.04921001     A.U. after   13 cycles
 SCF Done:  E(RM062X) =  -1000.05119237     A.U. after   13 cycles
 SCF Done:  E(RM062X) =  -1000.05185377     A.U. after   12 cycles
 SCF Done:  E(RM062X) =  -1000.05193448     A.U. after   12 cycles
 SCF Done:  E(RM062X) =  -1000.05195221     A.U. after   12 cycles
 SCF Done:  E(RM062X) =  -1000.05196279     A.U. after   11 cycles
 SCF Done:  E(RM062X) =  -1000.05196466     A.U. after   10 cycles
 SCF Done:  E(RM062X) =  -1000.06395825     A.U. after   14 cycles
 SCF Done:  E(RM062X) =  -1000.06426174     A.U. after   13 cycles
 SCF Done:  E(RM062X) =  -1000.06434096     A.U. after   13 cycles
 SCF Done:  E(RM062X) =  -1000.06434974     A.U. after   12 cycles
 SCF Done:  E(RM062X) =  -1000.06435888     A.U. after   11 cycles
 SCF Done:  E(RM062X) =  -1000.06436268     A.U. after   11 cycles
 SCF Done:  E(RM062X) =  -1000.06436323     A.U. after   10 cycles
 SCF Done:  E(RM062X) =  -1000.06436353     A.U. after   11 cycles
 SCF Done:  E(RM062X) =  -1000.06436349     A.U. after    9 cycles
 Optimization completed.
    -- Stationary point found.
 Normal termination of Gaussian 16 at Mon Oct 14 09:16:12 2019.

 ----------------------------------------------------------------------
 #P Geom=AllCheck Guess=TCheck SCRF=Check GenChk RM062X/6-311++G(d,p) F
 req
 ----------------------------------------------------------------------

 Structure from the checkpoint file:  "01_p.chk"
 ----------------------
 imidazole n protonated
 ----------------------
 Charge =  1 Multiplicity = 1

                         Standard orientation:
 ---------------------------------------------------------------------
 Center     Atomic      Atomic             Coordinates (Angstroms)
 Number     Number       Type             X           Y           Z
 ---------------------------------------------------------------------
      1         16           0       -0.142394    1.207701    0.081925
      2          8           0       -0.106226    1.736596    1.400609
      3          8           0        0.024038    1.915231   -1.142433
      4          7           0       -1.414887    0.189207   -0.040543
      5          6           0       -2.013795   -0.501059    1.031290
      6          6           0       -1.851147   -0.443602   -1.218567
      7          1           0       -1.845452   -0.196602    2.054314
      8          6           0       -2.687919   -1.416991   -0.792028
      9          1           0       -1.569818   -0.077682   -2.192080
     10          1           0       -3.262639   -2.101894   -1.394549
     11          7           0        1.240046    0.085299    0.051670
     12          6           0        2.007299   -0.127910   -1.018828
     13          6           0        1.696094   -0.679008    1.113006
     14          6           0        2.766899   -1.371658    0.655023
     15          1           0        1.234512   -0.638115    2.086403
     16          1           0        3.419054   -2.072203    1.148772
     17          7           0       -2.773875   -1.438360    0.595147
     18          7           0        2.934745   -1.009580   -0.668505
     19          1           0        1.889134    0.354115   -1.977836
     20          1           0        3.664218   -1.350039   -1.284998
 ---------------------------------------------------------------------

 SCF Done:  E(RM062X) =  -1000.06436349     A.U. after    1 cycles

 The electronic state is 1-A.
 Alpha  occ. eigenvalues --  -90.34571 -19.83056 -19.82962 -15.04069 -15.03999
 Alpha  occ. eigenvalues --  -14.99756 -14.89421 -10.85153 -10.79155 -10.79048
 Alpha  occ. eigenvalues --  -10.76723 -10.73565 -10.71420  -8.68338  -6.60635
 Alpha  occ. eigenvalues --   -6.60512  -6.60487  -1.47738  -1.38706  -1.35785
 Alpha  occ. eigenvalues --   -1.30472  -1.24362  -1.16860  -1.08880  -1.02257
 Alpha  occ. eigenvalues --   -0.99574  -0.93661  -0.92242  -0.88063  -0.84642
 Alpha  occ. eigenvalues --   -0.83839  -0.81033  -0.79773  -0.76022  -0.74749
 Alpha  occ. eigenvalues --   -0.73201  -0.72360  -0.71939  -0.69987  -0.68005
 Alpha  occ. eigenvalues --   -0.66647  -0.64238  -0.62740  -0.61798  -0.61324
 Alpha  occ. eigenvalues --   -0.59588  -0.59396  -0.52516  -0.51699  -0.49762
 Alpha  occ. eigenvalues --   -0.45517
 Alpha virt. eigenvalues --   -0.18747  -0.15511  -0.14461  -0.13668  -0.11171
 Alpha virt. eigenvalues --   -0.10948  -0.09997  -0.09270  -0.08839  -0.08721
 Alpha virt. eigenvalues --   -0.07781  -0.06800  -0.06650  -0.05807  -0.05327

 Mulliken charges:
               1
     1  S   -0.047730
     2  O    0.001954
     3  O   -0.041101
     4  N    0.157697
     5  C   -0.216715
     6  C   -0.130706
     7  H    0.241826
     8  C   -0.180726
     9  H    0.235866
    10  H    0.254900
    11  N   -0.200024
    12  C    0.021925
    13  C   -0.023721
    14  C   -0.152323
    15  H    0.254131
    16  H    0.268113
    17  N   -0.040370
    18  N   -0.122732
    19  H    0.285541
    20  H    0.434195
 Sum of Mulliken charges =   1.00000

 Dipole moment (field-independent basis, Debye):
    X=              8.4398    Y=             -4.2122    Z=             -2.5516  Tot=              9.7716
 Quadrupole moment (field-independent basis, Debye-Ang):
   XX=            -45.0955   YY=            -78.7402   ZZ=            -65.7529
   XY=            -13.4059   XZ=             -1.4235   YZ=              1.9238

  Exact polarizability: 117.656   2.917  95.942  -2.504  -2.815 105.618
 Approx polarizability: 132.457   5.767 127.842  -7.415  -6.036 154.864

                      1                      2                      3
                      A                      A                      A
 Frequencies --     35.1390                41.2256                78.6703
 Red. masses --      3.6819                 6.7493                 4.2954
 Frc consts  --      0.0027                 0.0068                 0.0157
 IR Inten    --      0.8464                 4.8042                 1.3931

                      4                      5                      6
                      A                      A                      A
 Frequencies --    135.8457               175.3986               205.6226
 Red. masses --      6.1921                 6.6371                 6.9713
 Frc consts  --      0.0673                 0.1203                 0.1737
 IR Inten    --      2.1510                 3.3623                 2.5832

                      7                      8                      9
                      A                      A                      A
 Frequencies --    296.8836               326.8256               365.3864
 Red. masses --      6.6650                 9.1246                 7.3766
 Frc consts  --      0.3461                 0.5742                 0.5802
 IR Inten    --      4.6074                 0.2826                 0.6877

                     10                     11                     12
                      A                      A                      A
 Frequencies --    378.7116               495.0534               558.1345
 Red. masses --      9.0986                 8.6181                 8.9290
 Frc consts  --      0.7688                 1.2444                 1.6388
 IR Inten    --      7.9424                 0.8425               110.5547

                     13                     14                     15
                      A                      A                      A
 Frequencies --    589.4053               629.9785               631.0546
 Red. masses --      4.8622                 5.2652                 3.7732
 Frc consts  --      0.9952                 1.2312                 0.8853
 IR Inten    --     34.6509                87.6733                23.1012

                     16                     17                     18
                      A                      A                      A
 Frequencies --    652.3661               658.0106               730.2156
 Red. masses --      3.6643                 5.0504                 1.1721
 Frc consts  --      0.9188                 1.2884                 0.3682
 IR Inten    --     62.2662               223.0786                78.0258

                     19                     20                     21
                      A                      A                      A
 Frequencies --    755.8754               774.1790               856.3345
 Red. masses --      1.2300                 1.2127                 1.3530
 Frc consts  --      0.4141                 0.4282                 0.5846
 IR Inten    --     45.6869                60.1512                34.9121

                     22                     23                     24
                      A                      A                      A
 Frequencies --    892.5460               899.5758               907.7656
 Red. masses --      5.8619                 1.4201                 1.3493
 Frc consts  --      2.7514                 0.6771                 0.6551
 IR Inten    --      4.0402                 1.8851                 0.8091

                     25                     26                     27
                      A                      A                      A
 Frequencies --    931.5445               933.1029               988.7955
 Red. masses --      5.2844                 1.3724                 4.8564
 Frc consts  --      2.7018                 0.7040                 2.7976
 IR Inten    --      4.2931                 1.2142                31.9447

                     28                     29                     30
                      A                      A                      A
 Frequencies --   1000.3224              1072.3130              1086.8410
 Red. masses --      4.1306                 1.6362                 1.5443
 Frc consts  --      2.4352                 1.1085                 1.0747
 IR Inten    --     10.8560               180.3228                74.6622

                     31                     32                     33
                      A                      A                      A
 Frequencies --   1125.9847              1131.3322              1158.3197
 Red. masses --      1.4010                 2.1899                 1.6472
 Frc consts  --      1.0465                 1.6514                 1.3021
 IR Inten    --     16.1231                26.0226                59.9578

                     34                     35                     36
                      A                      A                      A
 Frequencies --   1178.5185              1224.2199              1243.3376
 Red. masses --      3.1768                 6.4674                 2.2674
 Frc consts  --      2.5996                 5.7108                 2.0652
 IR Inten    --     63.8823               339.0027                71.0031

                     37                     38                     39
                      A                      A                      A
 Frequencies --   1268.2728              1279.6031              1309.5105
 Red. masses --      6.9323                 1.2374                 1.5657
 Frc consts  --      6.5698                 1.1938                 1.5818
 IR Inten    --     21.0463                19.6458                23.2886

                     40                     41                     42
                      A                      A                      A
 Frequencies --   1393.2861              1401.4237              1487.7695
 Red. masses --      2.4529                 4.9641                 6.7302
 Frc consts  --      2.8056                 5.7442                 8.7771
 IR Inten    --     22.9006                 8.1052                92.6055

                     43                     44                     45
                      A                      A                      A
 Frequencies --   1494.1476              1536.7650              1567.6665
 Red. masses --      4.5684                 5.0786                 4.1562
 Frc consts  --      6.0090                 7.0666                 6.0180
 IR Inten    --     74.4907                25.2886                72.4937

                     46                     47                     48
                      A                      A                      A
 Frequencies --   1624.3992              1629.3912              3274.7570
 Red. masses --      5.9651                 3.7467                 1.1007
 Frc consts  --      9.2738                 5.8607                 6.9544
 IR Inten    --     27.5910                45.4199                14.9636

                     49                     50                     51
                      A                      A                      A
 Frequencies --   3287.2466              3288.7590              3295.1036
 Red. masses --      1.0936                 1.1040                 1.0957
 Frc consts  --      6.9627                 7.0356                 7.0095
 IR Inten    --      9.5002                73.1765                36.8439

                     52                     53                     54
                      A                      A                      A
 Frequencies --   3310.7414              3314.5014              3619.9780
 Red. masses --      1.1090                 1.1125                 1.0848
 Frc consts  --      7.1617                 7.2009                 8.3753
 IR Inten    --     10.8940                25.0838               268.0746

 - Thermochemistry -
 -------------------
 Temperature     0.001 Kelvin.  Pressure   1.00000 Atm.
 Atom     1 has atomic number 16 and mass  31.97207

 Molecular mass:   199.02897 amu.
 Principal axes and moments of inertia in atomic units:
                           1         2         3
     Eigenvalues --  1509.871022977.402803368.21873
           X            0.99992  -0.01189   0.00427
           Y            0.01189   0.99993   0.00046
           Z           -0.00427  -0.00041   0.99999
 This molecule is an asymmetric top.
 Rotational symmetry number  1.
 Warning -- assumption of classical behavior for rotation
           may cause significant error
 Rotational temperatures (Kelvin)      0.05737     0.02909     0.02572
 Rotational constants (GHZ):           1.19529     0.60615     0.53581
 Zero-point vibrational energy     385964.1 (Joules/Mol)
                                   92.24763 (Kcal/Mol)
 Vibrational temperatures:     50.56    59.31   113.19   195.45   252.36
          (Kelvin)            295.85   427.15   470.23   525.71   544.88
                              712.27   803.03   848.02   906.40   907.95
                              938.61   946.73  1050.62  1087.54  1113.87
                             1232.07  1284.17  1294.29  1306.07  1340.28
                             1342.53  1422.66  1439.24  1542.82  1563.72
                             1620.04  1627.73  1666.56  1695.63  1761.38
                             1788.89  1824.76  1841.06  1884.09  2004.63
                             2016.34  2140.57  2149.75  2211.06  2255.52
                             2337.15  2344.33  4711.64  4729.61  4731.79
                             4740.92  4763.42  4768.83  5208.34

 Zero-point correction=                           0.147006 (Hartree/Particle)
 Thermal correction to Energy=                    0.147006
 Thermal correction to Enthalpy=                  0.147006
 Thermal correction to Gibbs Free Energy=         0.147006
 Sum of electronic and zero-point Energies=           -999.917358
 Sum of electronic and thermal Energies=              -999.917358
 Sum of electronic and thermal Enthalpies=            -999.917358
 Sum of electronic and thermal Free Energies=         -999.917357

                     E (Thermal)             CV                S
                      KCal/Mol        Cal/Mol-Kelvin    Cal/Mol-Kelvin
 Total                   92.248              5.962            -27.334
 Electronic               0.000              0.000              0.000
 Translational            0.000              2.981            -20.854
 Rotational               0.000              2.981             -6.480
 Vibrational             92.248              0.000              0.000

 Optimization completed.
    -- Stationary point found.
 Normal termination of Gaussian 16 at Mon Oct 14 09:19:26 2019.
