 Gaussian 16, Revision A.03,
 Gaussian 16:  ES64L-G16RevA.03 25-Dec-2016

 -------------------------------------------------------------------
 #p opt freq m062x/6-311++g(d,p) geom=connectivity temperature=0.001
 -------------------------------------------------------------------

 -----------------
 Nitro Quinoline 8
 -----------------
 Symbolic Z-matrix:
 Charge =  0 Multiplicity = 1

 SCF Done:  E(RM062X) =  -606.250397062     A.U. after   18 cycles
 SCF Done:  E(RM062X) =  -606.298170001     A.U. after   17 cycles
 SCF Done:  E(RM062X) =  -606.319516798     A.U. after   18 cycles
 SCF Done:  E(RM062X) =  -606.329250425     A.U. after   17 cycles
 SCF Done:  E(RM062X) =  -606.318481704     A.U. after   19 cycles
 SCF Done:  E(RM062X) =  -606.332442318     A.U. after   16 cycles
 SCF Done:  E(RM062X) =  -606.334278139     A.U. after   18 cycles
 SCF Done:  E(RM062X) =  -606.335281451     A.U. after   18 cycles
 SCF Done:  E(RM062X) =  -606.335451140     A.U. after   16 cycles
 SCF Done:  E(RM062X) =  -606.335461887     A.U. after   15 cycles
 SCF Done:  E(RM062X) =  -606.335538619     A.U. after   14 cycles
 SCF Done:  E(RM062X) =  -606.335540263     A.U. after   12 cycles
 SCF Done:  E(RM062X) =  -606.335540993     A.U. after   11 cycles
 Optimization completed.
    -- Stationary point found.
 Normal termination of Gaussian 16 at Mon Oct 14 11:56:23 2019.

 ----------------------------------------------------------------------
 #P Geom=AllCheck Guess=TCheck SCRF=Check GenChk RM062X/6-311++G(d,p) F
 req
 ----------------------------------------------------------------------

 Structure from the checkpoint file:  "02.chk"
 -----------------
 Nitro Quinoline 8
 -----------------
 Charge =  0 Multiplicity = 1

                         Standard orientation:
 ---------------------------------------------------------------------
 Center     Atomic      Atomic             Coordinates (Angstroms)
 Number     Number       Type             X           Y           Z
 ---------------------------------------------------------------------
      1          6           0       -0.306702    2.557046   -0.071300
      2          6           0       -1.343761    1.599278   -0.021179
      3          6           0       -1.029967    0.271730   -0.007882
      4          6           0        0.307886   -0.203032    0.011925
      5          6           0        1.334457    0.776603   -0.032444
      6          6           0        1.001182    2.153445   -0.085855
      7          7           0        0.554408   -1.531591    0.121278
      8          6           0        1.804420   -1.914439    0.150937
      9          6           0        2.911029   -1.030678    0.077590
     10          6           0        2.672706    0.311279   -0.005868
     11          7           0       -2.145455   -0.692035   -0.031813
     12          8           0       -2.125836   -1.542274   -0.887069
     13          8           0       -3.025522   -0.529192    0.788020
     14          1           0       -0.558118    3.609477   -0.100579
     15          1           0       -2.383793    1.900064   -0.000934
     16          1           0        1.803350    2.882042   -0.127186
     17          1           0        1.976404   -2.982951    0.244772
     18          1           0        3.917650   -1.427731    0.100813
     19          1           0        3.485199    1.028815   -0.046282
 ---------------------------------------------------------------------

 SCF Done:  E(RM062X) =  -606.335540993     A.U. after    1 cycles

 The electronic state is 1-A.
 Alpha  occ. eigenvalues --  -19.66355 -19.66089 -15.00142 -14.77091 -10.61965
 Alpha  occ. eigenvalues --  -10.61742 -10.60420 -10.58958 -10.58805 -10.58702
 Alpha  occ. eigenvalues --  -10.58267 -10.57954 -10.57587  -1.37767  -1.19029
 Alpha  occ. eigenvalues --   -1.08925  -0.99927  -0.95018  -0.90105  -0.88311
 Alpha  occ. eigenvalues --   -0.80593  -0.75832  -0.75202  -0.69269  -0.65222
 Alpha  occ. eigenvalues --   -0.64792  -0.62571  -0.61063  -0.59790  -0.58971
 Alpha  occ. eigenvalues --   -0.55520  -0.52829  -0.51914  -0.51053  -0.49794
 Alpha  occ. eigenvalues --   -0.47677  -0.44441  -0.44375  -0.40800  -0.39331
 Alpha  occ. eigenvalues --   -0.37953  -0.37817  -0.34409  -0.33299  -0.31581
 Alpha virt. eigenvalues --   -0.06143  -0.02483  -0.02007  -0.01299  -0.00183
 Alpha virt. eigenvalues --    0.00865   0.02007   0.02336   0.02890   0.04280
 Alpha virt. eigenvalues --    0.04462   0.05074   0.06774   0.07192   0.08005

 Mulliken charges:
               1
     1  C   -0.380178
     2  C    0.179591
     3  C   -0.650836
     4  C   -1.646916
     5  C    1.034704
     6  C   -0.002442
     7  N    0.181474
     8  C    0.137487
     9  C   -0.523973
    10  C    0.525378
    11  N   -0.242808
    12  O    0.046757
    13  O    0.012155
    14  H    0.218001
    15  H    0.253263
    16  H    0.183660
    17  H    0.237247
    18  H    0.223376
    19  H    0.214060
 Sum of Mulliken charges =   0.00000

 Dipole moment (field-independent basis, Debye):
    X=              5.4234    Y=              3.8743    Z=             -0.1104  Tot=              6.6660
 Quadrupole moment (field-independent basis, Debye-Ang):
   XX=            -71.2632   YY=            -67.0387   ZZ=            -79.3225
   XY=             -8.9812   XZ=              1.6987   YZ=             -2.1221

  Exact polarizability: 152.997 -14.609 145.747  -3.359   0.932  70.388
 Approx polarizability: 195.986 -21.257 201.300  -8.552   5.968 102.474

                      1                      2                      3
                      A                      A                      A
 Frequencies --     54.2996               103.6438               170.0960
 Red. masses --     12.8536                 6.4393                 5.3184
 Frc consts  --      0.0223                 0.0408                 0.0907
 IR Inten    --      0.4192                 0.0794                 4.2786

                      4                      5                      6
                      A                      A                      A
 Frequencies --    182.5911               207.6631               353.3525
 Red. masses --      6.3365                 4.6730                 7.6528
 Frc consts  --      0.1245                 0.1187                 0.5630
 IR Inten    --      1.7472                 0.0529                 2.3718

                      7                      8                      9
                      A                      A                      A
 Frequencies --    370.3332               416.4066               465.6832
 Red. masses --      5.8366                 4.8203                 4.2864
 Frc consts  --      0.4716                 0.4925                 0.5477
 IR Inten    --      0.5741                 4.1609                 1.6191

                     10                     11                     12
                      A                      A                      A
 Frequencies --    476.1380               525.8931               547.8255
 Red. masses --      3.4223                 6.2280                 7.2630
 Frc consts  --      0.4571                 1.0148                 1.2842
 IR Inten    --      0.9126                 3.2412                 0.6662

                     13                     14                     15
                      A                      A                      A
 Frequencies --    608.3367               662.6555               666.8993
 Red. masses --      4.0733                 4.7811                 6.0874
 Frc consts  --      0.8881                 1.2369                 1.5952
 IR Inten    --      1.4569                 3.3571                16.2754

                     16                     17                     18
                      A                      A                      A
 Frequencies --    761.5963               786.6617               817.8745
 Red. masses --      2.5998                 2.1617                 2.0622
 Frc consts  --      0.8885                 0.7882                 0.8127
 IR Inten    --      9.1951                14.8941                45.8985

                     19                     20                     21
                      A                      A                      A
 Frequencies --    827.9963               830.9823               856.3730
 Red. masses --      5.6258                 5.4780                 2.3776
 Frc consts  --      2.2724                 2.2287                 1.0273
 IR Inten    --      8.8057                16.4278                32.0613

                     22                     23                     24
                      A                      A                      A
 Frequencies --    906.9608               953.3696               990.9645
 Red. masses --      7.3146                 1.4401                 1.3744
 Frc consts  --      3.5450                 0.7712                 0.7952
 IR Inten    --     30.1471                 0.3167                 0.0890

                     25                     26                     27
                      A                      A                      A
 Frequencies --   1008.7753              1021.1840              1042.1150
 Red. masses --      1.3401                 1.3576                 4.9385
 Frc consts  --      0.8035                 0.8341                 3.1599
 IR Inten    --      0.2971                 0.8929                 0.5170

                     28                     29                     30
                      A                      A                      A
 Frequencies --   1057.9654              1098.5361              1159.3646
 Red. masses --      2.7090                 2.0272                 1.2549
 Frc consts  --      1.7865                 1.4413                 0.9938
 IR Inten    --      3.5573                 5.9144                 6.3279

                     31                     32                     33
                      A                      A                      A
 Frequencies --   1184.1739              1237.4123              1251.3462
 Red. masses --      1.3394                 2.0648                 1.9409
 Frc consts  --      1.1066                 1.8627                 1.7906
 IR Inten    --      2.7374                 4.8427                 0.1596

                     34                     35                     36
                      A                      A                      A
 Frequencies --   1284.9291              1367.6639              1405.6042
 Red. masses --      1.7637                 3.6495                 3.5572
 Frc consts  --      1.7156                 4.0220                 4.1407
 IR Inten    --      1.7432                 2.8067                 2.9105

                     37                     38                     39
                      A                      A                      A
 Frequencies --   1430.0449              1473.0511              1486.8802
 Red. masses --      2.0793                 2.4753                13.1460
 Frc consts  --      2.5054                 3.1646                17.1236
 IR Inten    --     23.4619                 9.7290               181.0894

                     40                     41                     42
                      A                      A                      A
 Frequencies --   1516.6236              1557.3999              1646.8886
 Red. masses --      3.0703                 4.3552                 7.8652
 Frc consts  --      4.1609                 6.2238                12.5687
 IR Inten    --      0.4837                23.5745                32.0840

                     43                     44                     45
                      A                      A                      A
 Frequencies --   1679.6095              1693.3054              1717.4491
 Red. masses --      6.3402                 9.3503                 9.6751
 Frc consts  --     10.5382                15.7961                16.8142
 IR Inten    --     59.7581               142.4504               198.6018

                     46                     47                     48
                      A                      A                      A
 Frequencies --   3184.7114              3203.4470              3205.2869
 Red. masses --      1.0908                 1.0906                 1.0897
 Frc consts  --      6.5182                 6.5942                 6.5959
 IR Inten    --     11.0213                 1.2352                 2.8278

                     49                     50                     51
                      A                      A                      A
 Frequencies --   3227.1115              3233.6644              3238.0633
 Red. masses --      1.0922                 1.0970                 1.0967
 Frc consts  --      6.7017                 6.7585                 6.7748
 IR Inten    --      3.8088                 3.8622                 1.5702

 - Thermochemistry -
 -------------------
 Temperature     0.001 Kelvin.  Pressure   1.00000 Atm.
 Atom     1 has atomic number  6 and mass  12.00000

 Molecular mass:   174.04293 amu.
 Principal axes and moments of inertia in atomic units:
                           1         2         3
     Eigenvalues --  1333.939082314.833053482.03669
           X            0.99947  -0.03249   0.00098
           Y            0.03249   0.99946  -0.00502
           Z           -0.00081   0.00505   0.99999
 This molecule is an asymmetric top.
 Rotational symmetry number  1.
 Warning -- assumption of classical behavior for rotation
           may cause significant error
 Rotational temperatures (Kelvin)      0.06493     0.03742     0.02487
 Rotational constants (GHZ):           1.35294     0.77964     0.51830
 Zero-point vibrational energy     365801.3 (Joules/Mol)
                                   87.42861 (Kcal/Mol)
 Vibrational temperatures:     78.12   149.12   244.73   262.71   298.78
          (Kelvin)            508.40   532.83   599.12   670.01   685.06
                              756.64   788.20   875.26   953.41   959.52
                             1095.77  1131.83  1176.74  1191.30  1195.60
                             1232.13  1304.91  1371.69  1425.78  1451.40
                             1469.26  1499.37  1522.18  1580.55  1668.07
                             1703.76  1780.36  1800.41  1848.73  1967.76
                             2022.35  2057.52  2119.39  2139.29  2182.08
                             2240.75  2369.51  2416.58  2436.29  2471.03
                             4582.09  4609.05  4611.69  4643.09  4652.52
                             4658.85

 Zero-point correction=                           0.139326 (Hartree/Particle)
 Thermal correction to Energy=                    0.139326
 Thermal correction to Enthalpy=                  0.139326
 Thermal correction to Gibbs Free Energy=         0.139326
 Sum of electronic and zero-point Energies=           -606.196215
 Sum of electronic and thermal Energies=              -606.196215
 Sum of electronic and thermal Enthalpies=            -606.196215
 Sum of electronic and thermal Free Energies=         -606.196215

                     E (Thermal)             CV                S
                      KCal/Mol        Cal/Mol-Kelvin    Cal/Mol-Kelvin
 Total                   87.429              5.962            -28.074
 Electronic               0.000              0.000              0.000
 Translational            0.000              2.981            -21.254
 Rotational               0.000              2.981             -6.821
 Vibrational             87.429              0.000              0.000

                           ! Non-Optimized Parameters !
 Normal termination of Gaussian 16 at Mon Oct 14 11:59:26 2019.
