 Gaussian 16, Revision A.03,
 Gaussian 16:  ES64L-G16RevA.03 25-Dec-2016

 -------------------------------------------------------------------
 #p opt freq m062x/6-311++g(d,p) geom=connectivity temperature=0.001
 -------------------------------------------------------------------

 -----------------
 Nitro Quinoline 8
 -----------------
 Symbolic Z-matrix:
 Charge =  1 Multiplicity = 1

 SCF Done:  E(RM062X) =  -606.590719883     A.U. after   19 cycles
 SCF Done:  E(RM062X) =  -606.634388109     A.U. after   17 cycles
 SCF Done:  E(RM062X) =  -606.654795537     A.U. after   17 cycles
 SCF Done:  E(RM062X) =  -606.660592419     A.U. after   16 cycles
 SCF Done:  E(RM062X) =  -606.660618616     A.U. after   15 cycles
 SCF Done:  E(RM062X) =  -606.660624533     A.U. after   15 cycles
 SCF Done:  E(RM062X) =  -606.661650409     A.U. after   15 cycles
 SCF Done:  E(RM062X) =  -606.661684216     A.U. after   14 cycles
 SCF Done:  E(RM062X) =  -606.661701858     A.U. after   13 cycles
 SCF Done:  E(RM062X) =  -606.661714414     A.U. after   13 cycles
 SCF Done:  E(RM062X) =  -606.661757271     A.U. after   15 cycles
 SCF Done:  E(RM062X) =  -606.661787910     A.U. after   14 cycles
 SCF Done:  E(RM062X) =  -606.661776538     A.U. after   15 cycles
 SCF Done:  E(RM062X) =  -606.609671987     A.U. after   17 cycles
 SCF Done:  E(RM062X) =  -606.661782154     A.U. after   14 cycles
 SCF Done:  E(RM062X) =  -606.661796654     A.U. after    9 cycles
 SCF Done:  E(RM062X) =  -606.661801502     A.U. after   13 cycles
 SCF Done:  E(RM062X) =  -606.661802206     A.U. after   13 cycles
 SCF Done:  E(RM062X) =  -606.661802531     A.U. after   10 cycles
 Optimization completed.
    -- Stationary point found.
 Normal termination of Gaussian 16 at Thu Jan  2 15:29:08 2020.

 ----------------------------------------------------------------------
 #P Geom=AllCheck Guess=TCheck SCRF=Check GenChk RM062X/6-311++G(d,p) F
 req
 ----------------------------------------------------------------------

 Structure from the checkpoint file:  "02_p_b.chk"
 -----------------
 Nitro Quinoline 8
 -----------------
 Charge =  1 Multiplicity = 1

                         Standard orientation:
 ---------------------------------------------------------------------
 Center     Atomic      Atomic             Coordinates (Angstroms)
 Number     Number       Type             X           Y           Z
 ---------------------------------------------------------------------
      1          6           0       -0.352417    2.544120   -0.028537
      2          6           0       -1.348909    1.574577   -0.011369
      3          6           0       -0.996307    0.223944   -0.018252
      4          6           0        0.374257   -0.219974   -0.004310
      5          6           0        1.359356    0.804595   -0.021144
      6          6           0        0.976688    2.162883   -0.041663
      7          7           0        0.676055   -1.523594    0.064827
      8          6           0        1.951469   -1.856799    0.089884
      9          6           0        3.016241   -0.930412    0.036990
     10          6           0        2.718360    0.403413   -0.008857
     11          7           0       -2.024602   -0.727013   -0.044964
     12          8           0       -1.928428   -1.873121   -0.299075
     13          8           0       -3.237113   -0.231813    0.263300
     14          1           0       -0.625878    3.590465   -0.043594
     15          1           0       -2.391026    1.863721   -0.022148
     16          1           0        1.754633    2.919187   -0.067713
     17          1           0        2.161765   -2.919403    0.159633
     18          1           0        4.038558   -1.284468    0.048745
     19          1           0        3.496732    1.158055   -0.028262
     20          1           0       -3.863054   -0.971920    0.144051
 ---------------------------------------------------------------------

 SCF Done:  E(RM062X) =  -606.661802531     A.U. after    1 cycles

 The electronic state is 1-A.
 Alpha  occ. eigenvalues --  -19.91206 -19.90086 -15.21421 -14.90823 -10.79234
 Alpha  occ. eigenvalues --  -10.77240 -10.75441 -10.74339 -10.74189 -10.73155
 Alpha  occ. eigenvalues --  -10.72319 -10.72205 -10.70403  -1.59800  -1.41547
 Alpha  occ. eigenvalues --   -1.23571  -1.18095  -1.12133  -1.06500  -1.03038
 Alpha  occ. eigenvalues --   -0.99258  -0.92580  -0.89692  -0.89191  -0.85323
 Alpha  occ. eigenvalues --   -0.83790  -0.81885  -0.78180  -0.75606  -0.74708
 Alpha  occ. eigenvalues --   -0.72753  -0.69808  -0.67305  -0.66254  -0.64681
 Alpha  occ. eigenvalues --   -0.63465  -0.63138  -0.62380  -0.60280  -0.58721
 Alpha  occ. eigenvalues --   -0.58313  -0.54035  -0.48332  -0.47608  -0.46844
 Alpha virt. eigenvalues --   -0.27477  -0.18123  -0.15743  -0.12890  -0.11475
 Alpha virt. eigenvalues --   -0.10699  -0.09466  -0.08773  -0.07901  -0.07084
 Alpha virt. eigenvalues --   -0.06799  -0.05363  -0.04880  -0.04520  -0.04012

 Mulliken charges:
               1
     1  C   -0.342979
     2  C    0.067058
     3  C   -0.383393
     4  C   -2.125719
     5  C    1.697984
     6  C   -0.028656
     7  N    0.217748
     8  C    0.162658
     9  C   -0.415578
    10  C    0.258554
    11  N   -0.449649
    12  O    0.230971
    13  O    0.166752
    14  H    0.274581
    15  H    0.297038
    16  H    0.236436
    17  H    0.277642
    18  H    0.268586
    19  H    0.244943
    20  H    0.345023
 Sum of Mulliken charges =   1.00000

 Dipole moment (field-independent basis, Debye):
    X=             -1.4947    Y=              2.1449    Z=             -0.0312  Tot=              2.6146
 Quadrupole moment (field-independent basis, Debye-Ang):
   XX=            -26.2628   YY=            -52.6767   ZZ=            -74.5402
   XY=              1.9729   XZ=              0.2719   YZ=             -1.0805

  Exact polarizability: 179.149   1.638 154.953   0.311   0.565  57.900
 Approx polarizability: 226.109   6.839 233.892   0.177   3.487  80.683

                      1                      2                      3
                      A                      A                      A
 Frequencies --     51.9594                90.2243               178.4297
 Red. masses --     11.1277                 5.4123                 4.3305
 Frc consts  --      0.0177                 0.0260                 0.0812
 IR Inten    --      1.3004                 3.5659                 7.9299

                      4                      5                      6
                      A                      A                      A
 Frequencies --    204.0163               216.1919               369.7240
 Red. masses --      4.6115                 6.0298                 6.2163
 Frc consts  --      0.1131                 0.1660                 0.5007
 IR Inten    --      3.8289                 2.0181                 0.3926

                      7                      8                      9
                      A                      A                      A
 Frequencies --    389.2770               397.1730               453.5907
 Red. masses --      6.5303                 3.9777                 2.7693
 Frc consts  --      0.5830                 0.3697                 0.3357
 IR Inten    --      4.0726                 4.9237                26.7687

                     10                     11                     12
                      A                      A                      A
 Frequencies --    465.4742               479.7042               499.5315
 Red. masses --      5.7175                 1.5084                 2.4840
 Frc consts  --      0.7299                 0.2045                 0.3652
 IR Inten    --      3.0864                56.8210                61.6640

                     13                     14                     15
                      A                      A                      A
 Frequencies --    544.8782               595.3295               614.9512
 Red. masses --      7.0198                 4.0579                 4.4201
 Frc consts  --      1.2279                 0.8474                 0.9848
 IR Inten    --      7.0176                 3.7734                 3.3188

                     16                     17                     18
                      A                      A                      A
 Frequencies --    653.0875               731.6162               752.1715
 Red. masses --      6.7278                 5.4946                 5.2187
 Frc consts  --      1.6907                 1.7328                 1.7396
 IR Inten    --     21.2646                 3.7299                12.8969

                     19                     20                     21
                      A                      A                      A
 Frequencies --    781.5317               806.6979               825.6518
 Red. masses --      2.5686                 1.6052                 5.3065
 Frc consts  --      0.9244                 0.6155                 2.1314
 IR Inten    --     33.5506                16.1261                 1.3340

                     22                     23                     24
                      A                      A                      A
 Frequencies --    852.0266               876.8750               985.5804
 Red. masses --      1.6882                 6.1024                 1.3686
 Frc consts  --      0.7221                 2.7646                 0.7833
 IR Inten    --     50.1899                 7.1842                 1.9151

                     25                     26                     27
                      A                      A                      A
 Frequencies --   1007.3257              1008.0218              1026.9838
 Red. masses --      1.8821                 2.9175                 1.3899
 Frc consts  --      1.1252                 1.7466                 0.8637
 IR Inten    --     10.6532                28.4836                 1.6142

                     28                     29                     30
                      A                      A                      A
 Frequencies --   1038.2968              1071.2310              1125.0633
 Red. masses --      1.3917                 2.4995                 2.4846
 Frc consts  --      0.8840                 1.6899                 1.8529
 IR Inten    --      0.4730                17.2090               347.4623

                     31                     32                     33
                      A                      A                      A
 Frequencies --   1146.7561              1168.1216              1208.5995
 Red. masses --      2.4402                 1.2240                 1.6075
 Frc consts  --      1.8907                 0.9840                 1.3834
 IR Inten    --    603.4141                40.3004               218.0437

                     34                     35                     36
                      A                      A                      A
 Frequencies --   1238.8678              1262.1982              1296.2427
 Red. masses --      1.9217                 1.9255                 1.8147
 Frc consts  --      1.7378                 1.8074                 1.7965
 IR Inten    --    101.1138                13.8877                16.6876

                     37                     38                     39
                      A                      A                      A
 Frequencies --   1369.1915              1402.3770              1430.6050
 Red. masses --      4.6051                 4.5656                 1.9180
 Frc consts  --      5.0865                 5.2903                 2.3128
 IR Inten    --     35.2316                54.4181                 2.5754

                     40                     41                     42
                      A                      A                      A
 Frequencies --   1462.8051              1468.6389              1499.4025
 Red. masses --      1.9820                 2.1638                 2.5651
 Frc consts  --      2.4987                 2.7498                 3.3978
 IR Inten    --      1.0922                25.2769                41.5423

                     43                     44                     45
                      A                      A                      A
 Frequencies --   1554.0587              1619.6631              1643.6556
 Red. masses --      3.9265                 6.3449                 5.3005
 Frc consts  --      5.5871                 9.8068                 8.4370
 IR Inten    --    138.8143               224.6961                16.3121

                     46                     47                     48
                      A                      A                      A
 Frequencies --   1680.0328              1772.1682              3204.2583
 Red. masses --      6.8232                 7.1141                 1.0927
 Frc consts  --     11.3469                13.1638                 6.6098
 IR Inten    --     72.8632               348.5849                 1.0282

                     49                     50                     51
                      A                      A                      A
 Frequencies --   3207.6347              3215.6130              3243.4167
 Red. masses --      1.0924                 1.0927                 1.0930
 Frc consts  --      6.6223                 6.6569                 6.7745
 IR Inten    --      0.9050                 0.3835                 2.4533

                     52                     53                     54
                      A                      A                      A
 Frequencies --   3244.8538              3255.8685              3708.3823
 Red. masses --      1.0976                 1.0963                 1.0669
 Frc consts  --      6.8091                 6.8471                 8.6448
 IR Inten    --      1.6962                18.8387               433.4588

 - Thermochemistry -
 -------------------
 Temperature     0.001 Kelvin.  Pressure   1.00000 Atm.
 Atom     1 has atomic number  6 and mass  12.00000

 Molecular mass:   175.05075 amu.
 Principal axes and moments of inertia in atomic units:
                           1         2         3
     Eigenvalues --  1297.700592376.720563654.16537
           X            0.99986  -0.01689  -0.00020
           Y            0.01689   0.99985  -0.00302
           Z            0.00025   0.00301   1.00000
 This molecule is an asymmetric top.
 Rotational symmetry number  1.
 Warning -- assumption of classical behavior for rotation
           may cause significant error
 Rotational temperatures (Kelvin)      0.06674     0.03644     0.02370
 Rotational constants (GHZ):           1.39072     0.75934     0.49389
 Zero-point vibrational energy     397136.4 (Joules/Mol)
                                   94.91789 (Kcal/Mol)
 Vibrational temperatures:     74.76   129.81   256.72   293.53   311.05
          (Kelvin)            531.95   560.08   571.44   652.62   669.71
                              690.19   718.71   783.96   856.55   884.78
                              939.65  1052.63  1082.21  1124.45  1160.66
                             1187.93  1225.88  1261.63  1418.03  1449.32
                             1450.32  1477.60  1493.88  1541.26  1618.72
                             1649.93  1680.67  1738.91  1782.45  1816.02
                             1865.00  1969.96  2017.71  2058.32  2104.65
                             2113.04  2157.31  2235.94  2330.33  2364.85
                             2417.19  2549.75  4610.21  4615.07  4626.55
                             4666.55  4668.62  4684.47  5335.53

 Zero-point correction=                           0.151261 (Hartree/Particle)
 Thermal correction to Energy=                    0.151261
 Thermal correction to Enthalpy=                  0.151261
 Thermal correction to Gibbs Free Energy=         0.151261
 Sum of electronic and zero-point Energies=           -606.510541
 Sum of electronic and thermal Energies=              -606.510541
 Sum of electronic and thermal Enthalpies=            -606.510541
 Sum of electronic and thermal Free Energies=         -606.510541

                     E (Thermal)             CV                S
                      KCal/Mol        Cal/Mol-Kelvin    Cal/Mol-Kelvin
 Total                   94.918              5.962            -28.010
 Electronic               0.000              0.000              0.000
 Translational            0.000              2.981            -21.237
 Rotational               0.000              2.981             -6.774
 Vibrational             94.918              0.000              0.000

 Optimization completed.
    -- Stationary point found.
 Normal termination of Gaussian 16 at Thu Jan  2 15:32:22 2020.
