 Gaussian 16, Revision A.03,
 Gaussian 16:  ES64L-G16RevA.03 25-Dec-2016

 -------------------------------------------------------------------
 #p opt freq m062x/6-311++g(d,p) geom=connectivity temperature=0.001
 -------------------------------------------------------------------

 ----------------------
 Nitro Quinoline 8 Plus
 ----------------------
 Symbolic Z-matrix:
 Charge =  1 Multiplicity = 1

 SCF Done:  E(RM062X) =  -606.611047723     A.U. after   17 cycles
 SCF Done:  E(RM062X) =  -606.662701917     A.U. after   17 cycles
 SCF Done:  E(RM062X) =  -606.671678568     A.U. after   17 cycles
 SCF Done:  E(RM062X) =  -606.699266663     A.U. after   17 cycles
 SCF Done:  E(RM062X) =  -606.699858237     A.U. after   16 cycles
 SCF Done:  E(RM062X) =  -606.695941854     A.U. after   18 cycles
 SCF Done:  E(RM062X) =  -606.702620181     A.U. after   15 cycles
 SCF Done:  E(RM062X) =  -606.703077242     A.U. after   15 cycles
 SCF Done:  E(RM062X) =  -606.703106012     A.U. after   14 cycles
 SCF Done:  E(RM062X) =  -606.703148164     A.U. after   13 cycles
 SCF Done:  E(RM062X) =  -606.703155054     A.U. after   13 cycles
 SCF Done:  E(RM062X) =  -606.703159649     A.U. after   12 cycles
 SCF Done:  E(RM062X) =  -606.703160169     A.U. after   11 cycles
 Optimization completed.
    -- Stationary point found.
 Normal termination of Gaussian 16 at Mon Oct 14 11:56:40 2019.

 ----------------------------------------------------------------------
 #P Geom=AllCheck Guess=TCheck SCRF=Check GenChk RM062X/6-311++G(d,p) F
 req
 ----------------------------------------------------------------------

 Structure from the checkpoint file:  "02_p.chk"
 ----------------------
 Nitro Quinoline 8 Plus
 ----------------------
 Charge =  1 Multiplicity = 1

                         Standard orientation:
 ---------------------------------------------------------------------
 Center     Atomic      Atomic             Coordinates (Angstroms)
 Number     Number       Type             X           Y           Z
 ---------------------------------------------------------------------
      1          6           0        0.420241    2.567107    0.000062
      2          6           0        1.412704    1.565620    0.000538
      3          6           0        1.070222    0.238466    0.000448
      4          6           0       -0.293027   -0.154190    0.000208
      5          6           0       -1.288083    0.853839   -0.000213
      6          6           0       -0.902523    2.219543   -0.000382
      7          7           0       -0.708501   -1.458132    0.000481
      8          6           0       -1.983980   -1.824812    0.000062
      9          6           0       -2.998892   -0.870132   -0.000129
     10          6           0       -2.645586    0.459067   -0.000193
     11          7           0        2.166929   -0.753903   -0.000129
     12          8           0        1.848021   -1.935274   -0.000595
     13          8           0        3.290964   -0.345613   -0.000129
     14          1           0        0.718537    3.607238   -0.000020
     15          1           0        2.464445    1.825869    0.000395
     16          1           0       -1.677286    2.977415   -0.000689
     17          1           0       -2.175565   -2.890601    0.000744
     18          1           0       -4.031677   -1.189093    0.000029
     19          1           0       -3.410604    1.228191   -0.000160
     20          1           0        0.044826   -2.154728    0.000607
 ---------------------------------------------------------------------

 SCF Done:  E(RM062X) =  -606.703160169     A.U. after    1 cycles

 The electronic state is 1-A.
 Alpha  occ. eigenvalues --  -19.82481 -19.81926 -15.16605 -15.02810 -10.81436
 Alpha  occ. eigenvalues --  -10.81053 -10.78844 -10.76825 -10.76387 -10.74880
 Alpha  occ. eigenvalues --  -10.74864 -10.74247 -10.73167  -1.54061  -1.35491
 Alpha  occ. eigenvalues --   -1.31757  -1.17407  -1.12982  -1.07316  -1.06574
 Alpha  occ. eigenvalues --   -0.97478  -0.95294  -0.92952  -0.89684  -0.82951
 Alpha  occ. eigenvalues --   -0.80931  -0.80811  -0.79335  -0.78575  -0.76002
 Alpha  occ. eigenvalues --   -0.73774  -0.72123  -0.71670  -0.70908  -0.67513
 Alpha  occ. eigenvalues --   -0.64385  -0.62250  -0.61992  -0.61076  -0.57474
 Alpha  occ. eigenvalues --   -0.54923  -0.54584  -0.54012  -0.50658  -0.49037
 Alpha virt. eigenvalues --   -0.24790  -0.19974  -0.18566  -0.12847  -0.12513
 Alpha virt. eigenvalues --   -0.10927  -0.10382  -0.09384  -0.08512  -0.08302
 Alpha virt. eigenvalues --   -0.07310  -0.06399  -0.05511  -0.05157  -0.05091

 Mulliken charges:
               1
     1  C   -0.386248
     2  C    0.110971
     3  C   -0.413448
     4  C   -2.024891
     5  C    1.863195
     6  C   -0.255970
     7  N    0.053151
     8  C    0.076963
     9  C   -0.521986
    10  C    0.541176
    11  N   -0.196076
    12  O   -0.050198
    13  O    0.118336
    14  H    0.279652
    15  H    0.321507
    16  H    0.228826
    17  H    0.292549
    18  H    0.289368
    19  H    0.264951
    20  H    0.408173
 Sum of Mulliken charges =   1.00000

 Dipole moment (field-independent basis, Debye):
    X=             -7.2921    Y=              1.3374    Z=              0.0019  Tot=              7.4137
 Quadrupole moment (field-independent basis, Debye-Ang):
   XX=            -50.9134   YY=            -46.6446   ZZ=            -74.0066
   XY=             10.8328   XZ=              0.0024   YZ=             -0.0070

  Exact polarizability: 156.419  14.938 142.693   0.010  -0.001  55.515
 Approx polarizability: 206.604  26.086 203.171   0.024   0.001  76.741

                      1                      2                      3
                      A                      A                      A
 Frequencies --     50.3384               115.7237               175.8280
 Red. masses --     12.4377                 5.2807                 4.2991
 Frc consts  --      0.0186                 0.0417                 0.0783
 IR Inten    --      0.0097                 4.3631                 2.4924

                      4                      5                      6
                      A                      A                      A
 Frequencies --    223.3386               246.8588               376.7663
 Red. masses --      4.2603                 7.1903                 7.5212
 Frc consts  --      0.1252                 0.2582                 0.6290
 IR Inten    --      0.4540                18.3976                 2.4044

                      7                      8                      9
                      A                      A                      A
 Frequencies --    384.8600               385.5154               455.0445
 Red. masses --      8.8399                 3.7082                 3.3345
 Frc consts  --      0.7714                 0.3247                 0.4068
 IR Inten    --      0.4087                 2.1331                 1.0917

                     10                     11                     12
                      A                      A                      A
 Frequencies --    471.4746               491.7359               545.8215
 Red. masses --      6.1169                 4.0830                 7.2385
 Frc consts  --      0.8011                 0.5817                 1.2706
 IR Inten    --      3.1506                15.1453                 0.8716

                     13                     14                     15
                      A                      A                      A
 Frequencies --    591.8565               602.9966               666.3063
 Red. masses --      3.3713                 7.1830                 6.9204
 Frc consts  --      0.6958                 1.5388                 1.8102
 IR Inten    --      0.2737                 5.1671                 5.2597

                     16                     17                     18
                      A                      A                      A
 Frequencies --    689.7047               713.9413               795.9596
 Red. masses --      7.5273                 5.9191                 1.2271
 Frc consts  --      2.1097                 1.7776                 0.4580
 IR Inten    --     30.9097                 3.1709                 5.9677

                     19                     20                     21
                      A                      A                      A
 Frequencies --    815.6893               835.3633               849.1058
 Red. masses --      5.3777                 6.9879                 1.3794
 Frc consts  --      2.1081                 2.8731                 0.5860
 IR Inten    --      2.3262                12.9236               115.6848

                     22                     23                     24
                      A                      A                      A
 Frequencies --    904.6221               922.0706               989.4693
 Red. masses --      6.8963                 1.2168                 1.3441
 Frc consts  --      3.3251                 0.6096                 0.7753
 IR Inten    --     33.5197                16.1930                 1.2289

                     25                     26                     27
                      A                      A                      A
 Frequencies --   1021.9851              1029.4450              1035.5845
 Red. masses --      1.3340                 1.2830                 1.3379
 Frc consts  --      0.8209                 0.8011                 0.8453
 IR Inten    --      5.8926                 5.6678                 0.6198

                     28                     29                     30
                      A                      A                      A
 Frequencies --   1040.8275              1083.9657              1110.4408
 Red. masses --      6.2516                 2.2369                 2.0282
 Frc consts  --      3.9902                 1.5486                 1.4735
 IR Inten    --     25.2750                12.6422                 5.7288

                     31                     32                     33
                      A                      A                      A
 Frequencies --   1173.6883              1195.3983              1227.1061
 Red. masses --      1.3017                 1.4015                 1.4655
 Frc consts  --      1.0565                 1.1799                 1.3001
 IR Inten    --      5.9225                16.6281                49.3802

                     34                     35                     36
                      A                      A                      A
 Frequencies --   1254.1413              1264.1149              1312.6825
 Red. masses --      2.0061                 1.5785                 1.7717
 Frc consts  --      1.8590                 1.4862                 1.7987
 IR Inten    --     21.3664                 3.6544                30.0058

                     37                     38                     39
                      A                      A                      A
 Frequencies --   1392.0915              1425.7973              1434.1961
 Red. masses --      5.4761                 4.0990                 3.0140
 Frc consts  --      6.2526                 4.9096                 3.6527
 IR Inten    --     14.0636                70.9588                43.4634

                     40                     41                     42
                      A                      A                      A
 Frequencies --   1452.4067              1500.1869              1514.1628
 Red. masses --      3.1144                 2.6299                 2.5500
 Frc consts  --      3.8708                 3.4872                 3.4446
 IR Inten    --    113.3343                69.0596                13.0603

                     43                     44                     45
                      A                      A                      A
 Frequencies --   1601.6605              1654.1014              1661.3188
 Red. masses --      3.3976                 6.6853                 5.9030
 Frc consts  --      5.1352                10.7769                 9.5990
 IR Inten    --    127.0033                79.8235                73.0266

                     46                     47                     48
                      A                      A                      A
 Frequencies --   1712.9439              1743.5887              3215.0050
 Red. masses --      5.8843                 9.6745                 1.0934
 Frc consts  --     10.1727                17.3288                 6.6589
 IR Inten    --     70.6520               216.5080                 1.9943

                     49                     50                     51
                      A                      A                      A
 Frequencies --   3221.8449              3233.2955              3238.9844
 Red. masses --      1.0919                 1.0925                 1.0956
 Frc consts  --      6.6778                 6.7294                 6.7719
 IR Inten    --      1.5135                19.6374                10.7491

                     52                     53                     54
                      A                      A                      A
 Frequencies --   3245.6123              3258.3239              3388.6619
 Red. masses --      1.0978                 1.0983                 1.0828
 Frc consts  --      6.8133                 6.8699                 7.3255
 IR Inten    --     11.5049                18.8499               399.5283

 - Thermochemistry -
 -------------------
 Temperature     0.001 Kelvin.  Pressure   1.00000 Atm.
 Atom     1 has atomic number  6 and mass  12.00000

 Molecular mass:   175.05075 amu.
 Principal axes and moments of inertia in atomic units:
                           1         2         3
     Eigenvalues --  1319.767172330.351253650.11827
           X            0.99953   0.03058   0.00000
           Y           -0.03058   0.99953  -0.00001
           Z           -0.00000   0.00001   1.00000
 This molecule is an asymmetric top.
 Rotational symmetry number  1.
 Warning -- assumption of classical behavior for rotation
           may cause significant error
 Rotational temperatures (Kelvin)      0.06563     0.03717     0.02373
 Rotational constants (GHZ):           1.36747     0.77445     0.49443
 Zero-point vibrational energy     400413.8 (Joules/Mol)
                                   95.70119 (Kcal/Mol)
 Vibrational temperatures:     72.43   166.50   252.98   321.33   355.17
          (Kelvin)            542.08   553.73   554.67   654.71   678.35
                              707.50   785.32   851.55   867.58   958.67
                              992.33  1027.20  1145.21  1173.60  1201.90
                             1221.67  1301.55  1326.65  1423.63  1470.41
                             1481.14  1489.98  1497.52  1559.58  1597.68
                             1688.68  1719.91  1765.53  1804.43  1818.78
                             1888.66  2002.91  2051.40  2063.49  2089.69
                             2158.43  2178.54  2304.43  2379.88  2390.27
                             2464.54  2508.64  4625.68  4635.52  4651.99
                             4660.18  4669.71  4688.00  4875.53

 Zero-point correction=                           0.152510 (Hartree/Particle)
 Thermal correction to Energy=                    0.152510
 Thermal correction to Enthalpy=                  0.152510
 Thermal correction to Gibbs Free Energy=         0.152510
 Sum of electronic and zero-point Energies=           -606.550651
 Sum of electronic and thermal Energies=              -606.550651
 Sum of electronic and thermal Enthalpies=            -606.550651
 Sum of electronic and thermal Free Energies=         -606.550651

                     E (Thermal)             CV                S
                      KCal/Mol        Cal/Mol-Kelvin    Cal/Mol-Kelvin
 Total                   95.701              5.962            -28.014
 Electronic               0.000              0.000              0.000
 Translational            0.000              2.981            -21.237
 Rotational               0.000              2.981             -6.778
 Vibrational             95.701              0.000              0.000

 Optimization completed.
    -- Stationary point found.
 Normal termination of Gaussian 16 at Mon Oct 14 12:00:06 2019.
