 Gaussian 16, Revision A.03,
 Gaussian 16:  ES64L-G16RevA.03 25-Dec-2016

 -------------------------------------------------------------------
 #P opt freq m062x/6-311++g(d,p) geom=connectivity temperature=0.001
 -------------------------------------------------------------------

 -----------
 albendazole
 -----------
 Symbolic Z-matrix:
 Charge =  0 Multiplicity = 1

 SCF Done:  E(RM062X) =  -1179.08041502     A.U. after   16 cycles
 SCF Done:  E(RM062X) =  -1179.11331690     A.U. after   14 cycles
 SCF Done:  E(RM062X) =  -1179.12086729     A.U. after   14 cycles
 SCF Done:  E(RM062X) =  -1179.12285222     A.U. after   14 cycles
 SCF Done:  E(RM062X) =  -1179.12391918     A.U. after   13 cycles
 SCF Done:  E(RM062X) =  -1179.12401289     A.U. after   12 cycles
 SCF Done:  E(RM062X) =  -1179.12402718     A.U. after   12 cycles
 SCF Done:  E(RM062X) =  -1179.12405874     A.U. after   11 cycles
 SCF Done:  E(RM062X) =  -1179.12408383     A.U. after   12 cycles
 SCF Done:  E(RM062X) =  -1179.12425767     A.U. after   14 cycles
 SCF Done:  E(RM062X) =  -1179.14234415     A.U. after   12 cycles
 SCF Done:  E(RM062X) =  -1179.14239405     A.U. after   12 cycles
 SCF Done:  E(RM062X) =  -1179.14241100     A.U. after   12 cycles
 SCF Done:  E(RM062X) =  -1179.14241495     A.U. after   11 cycles
 SCF Done:  E(RM062X) =  -1179.14241675     A.U. after   12 cycles
 SCF Done:  E(RM062X) =  -1179.14241725     A.U. after   11 cycles
 SCF Done:  E(RM062X) =  -1179.14241760     A.U. after   11 cycles
 SCF Done:  E(RM062X) =  -1179.14241788     A.U. after   11 cycles
 SCF Done:  E(RM062X) =  -1179.14241793     A.U. after    8 cycles
 Optimization completed.
    -- Stationary point found.
 Normal termination of Gaussian 16 at Mon Oct 14 19:00:10 2019.

 ----------------------------------------------------------------------
 #P Geom=AllCheck Guess=TCheck SCRF=Check GenChk RM062X/6-311++G(d,p) F
 req
 ----------------------------------------------------------------------

 Structure from the checkpoint file:  "03.chk"
 -----------
 albendazole
 -----------
 Charge =  0 Multiplicity = 1

                         Standard orientation:
 ---------------------------------------------------------------------
 Center     Atomic      Atomic             Coordinates (Angstroms)
 Number     Number       Type             X           Y           Z
 ---------------------------------------------------------------------
      1          6           0       -2.061406   -0.535890    0.648478
      2          6           0       -1.966482   -1.826404    0.092141
      3          6           0       -0.759653   -2.336380   -0.357391
      4          6           0        0.377721   -1.537440   -0.233514
      5          6           0        0.269483   -0.253976    0.334927
      6          6           0       -0.937159    0.272663    0.780256
      7          7           0        1.691750   -1.798895   -0.589179
      8          6           0        2.331410   -0.719459   -0.246616
      9          7           0        1.558319    0.254071    0.312790
     10          7           0        3.695895   -0.570340   -0.436490
     11          6           0        4.419015    0.538072   -0.094961
     12          8           0        5.705954    0.361779   -0.406195
     13          1           0        1.910182    1.146267    0.631140
     14          1           0        4.170013   -1.356633   -0.857630
     15          6           0        6.561806    1.464244   -0.089561
     16          8           0        3.964073    1.535529    0.414722
     17         16           0       -3.644180    0.071997    1.207674
     18          6           0       -4.358498    0.564030   -0.404604
     19          6           0       -5.762979    1.119216   -0.202598
     20          6           0       -6.392875    1.539468   -1.529462
     21          1           0       -4.380259   -0.313617   -1.054625
     22          1           0       -3.705339    1.314072   -0.856087
     23          1           0       -6.384216    0.360677    0.282310
     24          1           0       -5.719048    1.974861    0.477452
     25          1           0       -7.398605    1.935869   -1.379157
     26          1           0       -5.795958    2.313599   -2.017795
     27          1           0       -6.464986    0.690745   -2.213928
     28          1           0       -1.015043    1.262234    1.213019
     29          1           0       -2.865892   -2.427259    0.028831
     30          1           0       -0.687191   -3.328709   -0.784525
     31          1           0        6.244535    2.354812   -0.631101
     32          1           0        6.539074    1.662870    0.981452
     33          1           0        7.555357    1.157095   -0.402780
 ---------------------------------------------------------------------

 SCF Done:  E(RM062X) =  -1179.14241793     A.U. after    1 cycles

 The electronic state is 1-A.
 Alpha  occ. eigenvalues --  -89.88037 -19.69565 -19.63491 -14.81825 -14.80802
 Alpha  occ. eigenvalues --  -14.74027 -10.73081 -10.66556 -10.61224 -10.58678
 Alpha  occ. eigenvalues --  -10.57200 -10.56961 -10.55958 -10.55381 -10.54451
 Alpha  occ. eigenvalues --  -10.54269 -10.53804 -10.52757  -8.24588  -6.16732
 Alpha  occ. eigenvalues --   -6.16508  -6.16082  -1.27696  -1.17973  -1.15831
 Alpha  occ. eigenvalues --   -1.07390  -0.99982  -0.96239  -0.90798  -0.87235
 Alpha  occ. eigenvalues --   -0.85377  -0.84148  -0.80472  -0.75137  -0.72424
 Alpha  occ. eigenvalues --   -0.71788  -0.71273  -0.67414  -0.66543  -0.65240
 Alpha  occ. eigenvalues --   -0.63469  -0.60770  -0.59690  -0.57512  -0.55744
 Alpha  occ. eigenvalues --   -0.55254  -0.54501  -0.53268  -0.52106  -0.50822
 Alpha  occ. eigenvalues --   -0.50747  -0.50101  -0.49455  -0.46409  -0.46318
 Alpha  occ. eigenvalues --   -0.45952  -0.44273  -0.42885  -0.41385  -0.40611
 Alpha  occ. eigenvalues --   -0.40258  -0.39930  -0.39831  -0.38923  -0.37802
 Alpha  occ. eigenvalues --   -0.36091  -0.35560  -0.28943  -0.28212  -0.26607
 Alpha virt. eigenvalues --   -0.01002  -0.00007   0.00040   0.00818   0.00913
 Alpha virt. eigenvalues --    0.01414   0.02052   0.02403   0.02501   0.02960
 Alpha virt. eigenvalues --    0.03186   0.03607   0.04270   0.04505   0.04696

 Mulliken charges:
               1
     1  C    1.206542
     2  C   -0.543749
     3  C   -0.361894
     4  C    0.081852
     5  C    0.008777
     6  C   -0.671286
     7  N   -0.088273
     8  C    0.231579
     9  N   -0.274198
    10  N   -0.561113
    11  C    0.025782
    12  O   -0.069753
    13  H    0.375086
    14  H    0.362201
    15  C   -0.199186
    16  O   -0.305924
    17  S   -0.064246
    18  C   -0.707798
    19  C   -0.138693
    20  C   -0.661464
    21  H    0.159085
    22  H    0.188719
    23  H    0.161801
    24  H    0.156783
    25  H    0.172156
    26  H    0.152416
    27  H    0.153994
    28  H    0.213433
    29  H    0.197954
    30  H    0.221003
    31  H    0.195131
    32  H    0.195456
    33  H    0.187827
 Sum of Mulliken charges =  -0.00000

 Dipole moment (field-independent basis, Debye):
    X=              3.4412    Y=              1.9045    Z=             -1.4442  Tot=              4.1899
 Quadrupole moment (field-independent basis, Debye-Ang):
   XX=            -82.5496   YY=           -114.3181   ZZ=           -118.7650
   XY=              4.0144   XZ=              5.3108   YZ=              0.2527

  Exact polarizability: 292.917   3.113 169.104  -6.085  13.276 131.542
 Approx polarizability: 285.823   6.328 231.251 -13.122  27.171 176.331

                      1                      2                      3
                      A                      A                      A
 Frequencies --      6.2056                36.2231                46.1747
 Red. masses --      4.3606                 4.6955                 4.7256
 Frc consts  --      0.0001                 0.0036                 0.0059
 IR Inten    --      0.6785                 0.5652                 0.1100

                      4                      5                      6
                      A                      A                      A
 Frequencies --     56.7941                74.0070                89.7290
 Red. masses --      1.5999                 4.5809                 5.1224
 Frc consts  --      0.0030                 0.0148                 0.0243
 IR Inten    --      0.0459                 2.5931                 0.9656

                      7                      8                      9
                      A                      A                      A
 Frequencies --    109.3717               113.0771               131.4685
 Red. masses --      2.7828                 3.6357                 1.6730
 Frc consts  --      0.0196                 0.0274                 0.0170
 IR Inten    --      0.3283                 2.5109                 0.5946

                     10                     11                     12
                      A                      A                      A
 Frequencies --    168.3026               206.7756               210.2864
 Red. masses --      2.5866                 4.9838                 5.7778
 Frc consts  --      0.0432                 0.1255                 0.1505
 IR Inten    --      0.8696                 4.3079                 1.1014

                     13                     14                     15
                      A                      A                      A
 Frequencies --    228.6680               245.6550               281.9962
 Red. masses --      4.9978                 1.1197                 6.0722
 Frc consts  --      0.1540                 0.0398                 0.2845
 IR Inten    --      0.9272                 0.0305                 1.9190

                     16                     17                     18
                      A                      A                      A
 Frequencies --    299.8305               319.6479               350.2417
 Red. masses --      5.2676                 6.2028                 4.2032
 Frc consts  --      0.2790                 0.3734                 0.3038
 IR Inten    --     17.9873                 3.2686                 1.1493

                     19                     20                     21
                      A                      A                      A
 Frequencies --    386.4331               398.8287               438.7326
 Red. masses --      5.9253                 6.2140                 3.7702
 Frc consts  --      0.5213                 0.5824                 0.4276
 IR Inten    --     20.1740                 3.7438                 0.7540

                     22                     23                     24
                      A                      A                      A
 Frequencies --    448.0430               501.5178               543.7196
 Red. masses --      5.8209                 5.1472                 1.1025
 Frc consts  --      0.6885                 0.7628                 0.1920
 IR Inten    --      2.4370                 8.7573               125.5697

                     25                     26                     27
                      A                      A                      A
 Frequencies --    582.9876               613.2757               632.0799
 Red. masses --      1.2287                 6.7823                 3.5127
 Frc consts  --      0.2461                 1.5029                 0.8269
 IR Inten    --     72.9274                 0.0734                 3.1306

                     28                     29                     30
                      A                      A                      A
 Frequencies --    718.5732               725.4536               744.2663
 Red. masses --      7.9113                 6.0244                 5.3002
 Frc consts  --      2.4068                 1.8680                 1.7298
 IR Inten    --      3.1110                 0.0004                 3.2031

                     31                     32                     33
                      A                      A                      A
 Frequencies --    752.4988               760.4881               777.1967
 Red. masses --      1.0838                 4.8680                 4.4645
 Frc consts  --      0.3616                 1.6588                 1.5889
 IR Inten    --      3.3058                 0.1796                 4.7026

                     34                     35                     36
                      A                      A                      A
 Frequencies --    783.7798               787.8097               843.1213
 Red. masses --      6.2131                 9.5444                 1.5319
 Frc consts  --      2.2488                 3.4901                 0.6416
 IR Inten    --     14.2177                23.1257                35.0505

                     37                     38                     39
                      A                      A                      A
 Frequencies --    872.2037               879.2205               889.0757
 Red. masses --      1.1914                 4.3949                 1.3892
 Frc consts  --      0.5340                 2.0017                 0.6470
 IR Inten    --      0.3985                 0.6147                14.9926

                     40                     41                     42
                      A                      A                      A
 Frequencies --    921.6359               939.5579               978.5387
 Red. masses --      1.8764                 4.6038                 1.3107
 Frc consts  --      0.9391                 2.3945                 0.7394
 IR Inten    --      3.7586                 1.1751                 0.3753

                     43                     44                     45
                      A                      A                      A
 Frequencies --   1010.6461              1051.7487              1065.4811
 Red. masses --      5.6174                 7.0361                 2.5337
 Frc consts  --      3.3805                 4.5857                 1.6947
 IR Inten    --      5.9646                14.6092                 0.5709

                     46                     47                     48
                      A                      A                      A
 Frequencies --   1073.6267              1092.2920              1122.7768
 Red. masses --      1.1901                 1.9612                 2.1257
 Frc consts  --      0.8083                 1.3786                 1.5789
 IR Inten    --      0.7063                 0.2595                19.4974

                     49                     50                     51
                      A                      A                      A
 Frequencies --   1135.4471              1153.4372              1190.2520
 Red. masses --      2.4679                 1.4417                 1.2752
 Frc consts  --      1.8746                 1.1301                 1.0644
 IR Inten    --     10.7497                 3.3481                 0.8609

                     52                     53                     54
                      A                      A                      A
 Frequencies --   1219.8721              1231.0969              1244.0568
 Red. masses --      1.6876                 1.5392                 1.3896
 Frc consts  --      1.4796                 1.3744                 1.2671
 IR Inten    --     14.2023                 1.5943                 0.2430

                     55                     56                     57
                      A                      A                      A
 Frequencies --   1253.4424              1269.2325              1274.6222
 Red. masses --      1.9884                 1.2658                 3.0313
 Frc consts  --      1.8406                 1.2014                 2.9016
 IR Inten    --      0.5672                13.2802               768.8331

                     58                     59                     60
                      A                      A                      A
 Frequencies --   1310.3602              1322.6445              1324.1766
 Red. masses --      2.2996                 2.3448                 1.3548
 Frc consts  --      2.3264                 2.4168                 1.3996
 IR Inten    --    124.3987                62.7790                21.4389

                     61                     62                     63
                      A                      A                      A
 Frequencies --   1350.8894              1377.6777              1414.3306
 Red. masses --      4.8182                 1.4853                 1.2661
 Frc consts  --      5.1806                 1.6610                 1.4921
 IR Inten    --     11.3769                 2.1894                 4.0715

                     64                     65                     66
                      A                      A                      A
 Frequencies --   1468.6773              1486.5678              1487.8793
 Red. masses --      1.5404                 2.8939                 1.1300
 Frc consts  --      1.9577                 3.7679                 1.4738
 IR Inten    --     86.7117                 2.8228                 2.1731

                     67                     68                     69
                      A                      A                      A
 Frequencies --   1496.2457              1499.0915              1501.5085
 Red. masses --      1.0413                 1.0551                 3.4180
 Frc consts  --      1.3735                 1.3970                 4.5402
 IR Inten    --     11.5613                 2.4041               220.6579

                     70                     71                     72
                      A                      A                      A
 Frequencies --   1504.9303              1510.1347              1513.0097
 Red. masses --      1.0391                 1.1254                 1.0833
 Frc consts  --      1.3866                 1.5121                 1.4611
 IR Inten    --     11.1850                74.9205                 6.3309

                     73                     74                     75
                      A                      A                      A
 Frequencies --   1523.5552              1549.3367              1634.8133
 Red. masses --      2.9629                 3.2620                 6.8397
 Frc consts  --      4.0521                 4.6134                10.7702
 IR Inten    --    238.0028                81.4767               362.4762

                     76                     77                     78
                      A                      A                      A
 Frequencies --   1645.5917              1709.3493              1828.5728
 Red. masses --      7.4930                 6.5364                10.4049
 Frc consts  --     11.9550                11.2526                20.4980
 IR Inten    --    306.5482               382.2740               303.4638

                     79                     80                     81
                      A                      A                      A
 Frequencies --   3059.4578              3062.4067              3073.4269
 Red. masses --      1.0390                 1.0561                 1.0568
 Frc consts  --      5.7298                 5.8353                 5.8815
 IR Inten    --     22.5815                 6.4299                28.1446

                     82                     83                     84
                      A                      A                      A
 Frequencies --   3089.9562              3096.8691              3124.8496
 Red. masses --      1.0307                 1.1040                 1.1073
 Frc consts  --      5.7983                 6.2382                 6.3708
 IR Inten    --     27.6513                 1.2067                 0.4171

                     85                     86                     87
                      A                      A                      A
 Frequencies --   3136.0741              3138.0776              3169.2191
 Red. masses --      1.1056                 1.1019                 1.1077
 Frc consts  --      6.4063                 6.3934                 6.5552
 IR Inten    --     37.9508                28.6748                11.3254

                     88                     89                     90
                      A                      A                      A
 Frequencies --   3205.1124              3212.7525              3225.3256
 Red. masses --      1.1066                 1.0891                 1.0930
 Frc consts  --      6.6975                 6.6232                 6.6991
 IR Inten    --      8.4083                 0.7928                 0.2234

                     91                     92                     93
                      A                      A                      A
 Frequencies --   3232.3740              3646.8557              3656.8422
 Red. masses --      1.0955                 1.0821                 1.0783
 Frc consts  --      6.7440                 8.4788                 8.4958
 IR Inten    --      2.6598               201.5356               120.3368

 - Thermochemistry -
 -------------------
 Temperature     0.001 Kelvin.  Pressure   1.00000 Atm.
 Atom     1 has atomic number  6 and mass  12.00000

 Molecular mass:   265.08850 amu.
 Principal axes and moments of inertia in atomic units:
                           1         2         3
     Eigenvalues --  1732.29450********************
           X            0.99995  -0.00293   0.00947
           Y            0.00306   0.99990  -0.01400
           Z           -0.00943   0.01403   0.99986
 This molecule is an asymmetric top.
 Rotational symmetry number  1.
 Warning -- assumption of classical behavior for rotation
           may cause significant error
 Rotational temperatures (Kelvin)      0.05000     0.00599     0.00567
 Rotational constants (GHZ):           1.04182     0.12488     0.11807
 Zero-point vibrational energy     699040.6 (Joules/Mol)
                                  167.07472 (Kcal/Mol)
 Vibrational temperatures:      8.93    52.12    66.44    81.71   106.48
          (Kelvin)            129.10   157.36   162.69   189.15   242.15
                              297.50   302.56   329.00   353.44   405.73
                              431.39   459.90   503.92   555.99   573.83
                              631.24   644.63   721.57   782.29   838.79
                              882.37   909.42  1033.87  1043.77  1070.83
                             1082.68  1094.17  1118.21  1127.68  1133.48
                             1213.06  1254.91  1265.00  1279.18  1326.03
                             1351.81  1407.90  1454.09  1513.23  1532.99
                             1544.71  1571.56  1615.43  1633.66  1659.54
                             1712.51  1755.12  1771.27  1789.92  1803.42
                             1826.14  1833.90  1885.32  1902.99  1905.19
                             1943.63  1982.17  2034.91  2113.10  2138.84
                             2140.73  2152.76  2156.86  2160.34  2165.26
                             2172.75  2176.88  2192.06  2229.15  2352.13
                             2367.64  2459.37  2630.91  4401.88  4406.12
                             4421.98  4445.76  4455.70  4495.96  4512.11
                             4514.99  4559.80  4611.44  4622.43  4640.52
                             4650.67  5247.01  5261.38

 Zero-point correction=                           0.266251 (Hartree/Particle)
 Thermal correction to Energy=                    0.266251
 Thermal correction to Enthalpy=                  0.266251
 Thermal correction to Gibbs Free Energy=         0.266251
 Sum of electronic and zero-point Energies=          -1178.876167
 Sum of electronic and thermal Energies=             -1178.876167
 Sum of electronic and thermal Enthalpies=           -1178.876167
 Sum of electronic and thermal Free Energies=        -1178.876167

                     E (Thermal)             CV                S
                      KCal/Mol        Cal/Mol-Kelvin    Cal/Mol-Kelvin
 Total                  167.075              5.962            -23.271
 Electronic               0.000              0.000              0.000
 Translational            0.000              2.981            -20.000
 Rotational               0.000              2.981             -3.271
 Vibrational            167.075              0.000              0.000

                           ! Non-Optimized Parameters !
 Normal termination of Gaussian 16 at Mon Oct 14 19:11:33 2019.
