 Gaussian 16, Revision A.03,
 Gaussian 16:  ES64L-G16RevA.03 25-Dec-2016

 -------------------------------------------------------------------
 #p opt freq m062x/6-311++g(d,p) geom=connectivity temperature=0.001
 -------------------------------------------------------------------

 -----------
 albendazole
 -----------
 Symbolic Z-matrix:
 Charge =  1 Multiplicity = 1

 SCF Done:  E(RM062X) =  -1179.40901639     A.U. after   17 cycles
 SCF Done:  E(RM062X) =  -1179.43995020     A.U. after   14 cycles
 SCF Done:  E(RM062X) =  -1179.44646816     A.U. after   14 cycles
 SCF Done:  E(RM062X) =  -1179.44865229     A.U. after   14 cycles
 SCF Done:  E(RM062X) =  -1179.45001529     A.U. after   14 cycles
 SCF Done:  E(RM062X) =  -1179.45031027     A.U. after   14 cycles
 SCF Done:  E(RM062X) =  -1179.45052131     A.U. after   14 cycles
 SCF Done:  E(RM062X) =  -1179.45090589     A.U. after   14 cycles
 SCF Done:  E(RM062X) =  -1179.45076030     A.U. after   13 cycles
 SCF Done:  E(RM062X) =  -1179.45200718     A.U. after   16 cycles
 SCF Done:  E(RM062X) =  -1179.45385518     A.U. after   12 cycles
 SCF Done:  E(RM062X) =  -1179.45386797     A.U. after   11 cycles
 SCF Done:  E(RM062X) =  -1179.45387402     A.U. after   11 cycles
 SCF Done:  E(RM062X) =  -1179.45387638     A.U. after   11 cycles
 SCF Done:  E(RM062X) =  -1179.45387742     A.U. after   11 cycles
 SCF Done:  E(RM062X) =  -1179.45387786     A.U. after   11 cycles
 SCF Done:  E(RM062X) =  -1179.45387831     A.U. after   10 cycles
 SCF Done:  E(RM062X) =  -1179.45387863     A.U. after   10 cycles
 SCF Done:  E(RM062X) =  -1179.45387870     A.U. after    8 cycles
 Optimization completed.
    -- Stationary point found.
 Normal termination of Gaussian 16 at Thu Jan  2 16:03:13 2020.

 ----------------------------------------------------------------------
 #P Geom=AllCheck Guess=TCheck SCRF=Check GenChk RM062X/6-311++G(d,p) F
 req
 ----------------------------------------------------------------------

 Structure from the checkpoint file:  "03_p_b.chk"
 -----------
 albendazole
 -----------
 Charge =  1 Multiplicity = 1

                         Standard orientation:
 ---------------------------------------------------------------------
 Center     Atomic      Atomic             Coordinates (Angstroms)
 Number     Number       Type             X           Y           Z
 ---------------------------------------------------------------------
      1          6           0       -2.101177   -0.370593    0.012822
      2          6           0       -1.852211    0.996508   -0.265728
      3          6           0       -0.576273    1.476435   -0.479775
      4          6           0        0.486099    0.572349   -0.411711
      5          6           0        0.227273   -0.783184   -0.135923
      6          6           0       -1.050492   -1.282975    0.078118
      7          7           0        1.846505    0.777261   -0.593460
      8          6           0        2.361043   -0.390913   -0.421447
      9          7           0        1.473581   -1.392171   -0.146571
     10          7           0        3.753978   -0.657927   -0.531289
     11          6           0        4.664462    0.038904    0.111333
     12          8           0        5.890733   -0.109182   -0.266280
     13          1           0        1.683029   -2.355072    0.068553
     14          1           0        4.098379   -1.244706   -1.286451
     15          6           0        6.970961    0.549005    0.441471
     16          8           0        4.290432    0.798890    1.086663
     17         16           0       -3.713868   -1.025420    0.298765
     18          6           0       -4.819871    0.399399    0.057348
     19          6           0       -6.261641   -0.069975    0.238500
     20          6           0       -7.240019    1.087960    0.053144
     21          1           0       -4.675663    0.798227   -0.949234
     22          1           0       -4.579885    1.171264    0.791929
     23          1           0       -6.477878   -0.862079   -0.483148
     24          1           0       -6.379638   -0.503146    1.235353
     25          1           0       -8.268842    0.749623    0.181507
     26          1           0       -7.054524    1.879864    0.782474
     27          1           0       -7.152032    1.520368   -0.946213
     28          1           0       -1.232573   -2.330772    0.284648
     29          1           0       -2.679788    1.689889   -0.314277
     30          1           0       -0.397239    2.522017   -0.695653
     31          1           0        6.872578    1.631020    0.339351
     32          1           0        6.985232    0.224251    1.482582
     33          1           0        7.872848    0.217442   -0.061947
     34          1           0        4.991193    1.353210    1.457556
 ---------------------------------------------------------------------

 SCF Done:  E(RM062X) =  -1179.45387870     A.U. after    1 cycles

 The electronic state is 1-A.
 Alpha  occ. eigenvalues --  -89.97611 -19.89457 -19.89350 -14.99812 -14.93688
 Alpha  occ. eigenvalues --  -14.87410 -10.94415 -10.78978 -10.78741 -10.69967
 Alpha  occ. eigenvalues --  -10.67816 -10.67783 -10.65032 -10.64891 -10.64417
 Alpha  occ. eigenvalues --  -10.64182 -10.60967 -10.59031  -8.34182  -6.26329
 Alpha  occ. eigenvalues --   -6.26060  -6.25692  -1.49602  -1.40626  -1.30143
 Alpha  occ. eigenvalues --   -1.24516  -1.12674  -1.07162  -1.04420  -0.99633
 Alpha  occ. eigenvalues --   -0.96869  -0.95750  -0.95118  -0.90827  -0.87246
 Alpha  occ. eigenvalues --   -0.85461  -0.83652  -0.83185  -0.81246  -0.80391
 Alpha  occ. eigenvalues --   -0.78192  -0.76130  -0.74550  -0.73724  -0.70842
 Alpha  occ. eigenvalues --   -0.69671  -0.69230  -0.67861  -0.65749  -0.63298
 Alpha  occ. eigenvalues --   -0.63276  -0.62175  -0.62108  -0.61132  -0.60660
 Alpha  occ. eigenvalues --   -0.57093  -0.56097  -0.54890  -0.54358  -0.53167
 Alpha  occ. eigenvalues --   -0.52393  -0.50019  -0.48597  -0.48207  -0.47038
 Alpha  occ. eigenvalues --   -0.46829  -0.45234  -0.42785  -0.39656  -0.34200
 Alpha virt. eigenvalues --   -0.15879  -0.14469  -0.12009  -0.10518  -0.09754
 Alpha virt. eigenvalues --   -0.09550  -0.09150  -0.08241  -0.06795  -0.06651
 Alpha virt. eigenvalues --   -0.06157  -0.05710  -0.05291  -0.04785  -0.04469

 Mulliken charges:
               1
     1  C    1.009136
     2  C   -0.083617
     3  C   -0.598460
     4  C   -0.424816
     5  C    0.278355
     6  C   -0.506830
     7  N   -0.053711
     8  C    0.340809
     9  N   -0.258006
    10  N   -0.344702
    11  C    0.078881
    12  O    0.035216
    13  H    0.357734
    14  H    0.390451
    15  C   -0.321934
    16  O   -0.103365
    17  S   -0.757889
    18  C   -0.243006
    19  C   -0.128011
    20  C   -0.622044
    21  H    0.189521
    22  H    0.186824
    23  H    0.169632
    24  H    0.172139
    25  H    0.201023
    26  H    0.154189
    27  H    0.155244
    28  H    0.240859
    29  H    0.186193
    30  H    0.261975
    31  H    0.216199
    32  H    0.226167
    33  H    0.251980
    34  H    0.343865
 Sum of Mulliken charges =   1.00000

 Dipole moment (field-independent basis, Debye):
    X=             18.7755    Y=             -0.2391    Z=              1.4897  Tot=             18.8360
 Quadrupole moment (field-independent basis, Debye-Ang):
   XX=             46.7716   YY=            -97.7234   ZZ=           -110.7913
   XY=             -1.6172   XZ=             11.6024   YZ=              4.3194

  Exact polarizability: 331.869  -1.658 159.819  -4.619  -3.173 117.096
 Approx polarizability: 314.079  -2.930 228.333  -9.393  -6.087 159.998

                      1                      2                      3
                      A                      A                      A
 Frequencies --      6.7431                26.8852                46.8501
 Red. masses --      4.6480                 5.2584                 4.6657
 Frc consts  --      0.0001                 0.0022                 0.0060
 IR Inten    --      3.0401                 1.7376                 3.1644

                      4                      5                      6
                      A                      A                      A
 Frequencies --     59.0829                80.8108                82.4392
 Red. masses --      5.1177                 1.8865                 3.4152
 Frc consts  --      0.0105                 0.0073                 0.0137
 IR Inten    --      0.1929                 0.4148                 0.6736

                      7                      8                      9
                      A                      A                      A
 Frequencies --    112.3303               114.2084               126.5418
 Red. masses --      3.5344                 5.6399                 2.7242
 Frc consts  --      0.0263                 0.0433                 0.0257
 IR Inten    --      1.2458                 1.0098                 1.8053

                     10                     11                     12
                      A                      A                      A
 Frequencies --    181.1322               188.7983               210.8914
 Red. masses --      1.1482                 4.3297                 4.7307
 Frc consts  --      0.0222                 0.0909                 0.1240
 IR Inten    --      2.1201                 2.8894                 6.2882

                     13                     14                     15
                      A                      A                      A
 Frequencies --    234.3505               247.0333               273.6274
 Red. masses --      4.1479                 1.1655                 4.6779
 Frc consts  --      0.1342                 0.0419                 0.2064
 IR Inten    --      1.0004                 0.1141                 1.1476

                     16                     17                     18
                      A                      A                      A
 Frequencies --    293.7408               317.2596               358.8411
 Red. masses --      4.1021                 3.7424                 3.6426
 Frc consts  --      0.2085                 0.2219                 0.2764
 IR Inten    --      3.6946                 2.1675                 8.3186

                     19                     20                     21
                      A                      A                      A
 Frequencies --    372.9799               382.6491               402.3121
 Red. masses --      2.9556                 3.5666                 2.1503
 Frc consts  --      0.2423                 0.3077                 0.2051
 IR Inten    --     26.4622                 5.8096                28.4147

                     22                     23                     24
                      A                      A                      A
 Frequencies --    422.1343               429.4936               463.0325
 Red. masses --      1.3841                 3.0886                 6.2411
 Frc consts  --      0.1453                 0.3357                 0.7884
 IR Inten    --    112.7102                 2.1638                 3.2185

                     25                     26                     27
                      A                      A                      A
 Frequencies --    531.5151               600.4630               605.1451
 Red. masses --      4.3439                 5.5333                 4.3809
 Frc consts  --      0.7230                 1.1755                 0.9452
 IR Inten    --     20.3255                11.3667                 1.4235

                     28                     29                     30
                      A                      A                      A
 Frequencies --    629.7657               656.1626               697.8674
 Red. masses --      1.3149                 3.7470                 4.3141
 Frc consts  --      0.3073                 0.9505                 1.2379
 IR Inten    --    101.8703                21.1211                24.0344

                     31                     32                     33
                      A                      A                      A
 Frequencies --    716.3687               753.8183               763.4312
 Red. masses --      8.1803                 4.1458                 1.2583
 Frc consts  --      2.4734                 1.3880                 0.4321
 IR Inten    --      3.3575                 3.0867                 9.7044

                     34                     35                     36
                      A                      A                      A
 Frequencies --    764.6754               779.1287               795.8796
 Red. masses --      5.0298                 5.1089                 5.6313
 Frc consts  --      1.7328                 1.8272                 2.1016
 IR Inten    --     41.4834                 3.7285                 8.7793

                     37                     38                     39
                      A                      A                      A
 Frequencies --    830.3160               858.4498               884.9517
 Red. masses --      1.4887                 1.3628                 1.1813
 Frc consts  --      0.6047                 0.5917                 0.5451
 IR Inten    --     40.4799                 5.6767                 0.0808

                     40                     41                     42
                      A                      A                      A
 Frequencies --    892.6153               922.4546               940.5350
 Red. masses --      5.2061                 1.8777                 4.8089
 Frc consts  --      2.4439                 0.9414                 2.5064
 IR Inten    --      5.4726                 3.0103                19.8310

                     43                     44                     45
                      A                      A                      A
 Frequencies --    964.3824               984.3855              1040.7528
 Red. masses --      6.7258                 1.2981                 8.0809
 Frc consts  --      3.6855                 0.7411                 5.1571
 IR Inten    --      2.6802                 1.1176                27.0063

                     46                     47                     48
                      A                      A                      A
 Frequencies --   1065.5836              1078.2399              1090.2974
 Red. masses --      2.6059                 1.1978                 2.1783
 Frc consts  --      1.7433                 0.8205                 1.5257
 IR Inten    --      0.2599                 1.3579                98.8311

                     49                     50                     51
                      A                      A                      A
 Frequencies --   1121.7294              1139.3677              1164.9944
 Red. masses --      2.1571                 2.8108                 1.3758
 Frc consts  --      1.5992                 2.1498                 1.1002
 IR Inten    --      9.0490                25.1657                62.4482

                     52                     53                     54
                      A                      A                      A
 Frequencies --   1169.6802              1177.3555              1202.6909
 Red. masses --      1.3746                 1.2593                 1.7506
 Frc consts  --      1.1081                 1.0285                 1.4919
 IR Inten    --    144.0209                 9.3778                19.0346

                     55                     56                     57
                      A                      A                      A
 Frequencies --   1221.1109              1250.2418              1258.5432
 Red. masses --      1.5258                 1.3630                 2.2698
 Frc consts  --      1.3404                 1.2553                 2.1182
 IR Inten    --     66.5913                 0.0385                 1.1475

                     58                     59                     60
                      A                      A                      A
 Frequencies --   1270.7449              1308.8954              1322.0254
 Red. masses --      1.2841                 2.7199                 2.2734
 Frc consts  --      1.2217                 2.7454                 2.3410
 IR Inten    --     15.3834                35.5099                10.5599

                     61                     62                     63
                      A                      A                      A
 Frequencies --   1331.7149              1349.6145              1380.4188
 Red. masses --      1.0969                 5.0734                 1.4867
 Frc consts  --      1.1462                 5.4447                 1.6691
 IR Inten    --      0.6547                 8.3117                 1.0340

                     64                     65                     66
                      A                      A                      A
 Frequencies --   1389.7686              1418.4324              1461.7524
 Red. masses --      1.8268                 1.2585                 1.6212
 Frc consts  --      2.0789                 1.4919                 2.0410
 IR Inten    --    297.8822                 3.7733                26.7649

                     67                     68                     69
                      A                      A                      A
 Frequencies --   1473.1218              1491.0101              1496.9926
 Red. masses --      2.2866                 1.1083                 1.0527
 Frc consts  --      2.9236                 1.4516                 1.3899
 IR Inten    --     50.7363                17.0202                40.3928

                     70                     71                     72
                      A                      A                      A
 Frequencies --   1498.1299              1504.3585              1505.1803
 Red. masses --      1.0533                 2.8383                 1.0411
 Frc consts  --      1.3928                 3.7846                 1.3896
 IR Inten    --      1.4247                28.7270                11.6506

                     73                     74                     75
                      A                      A                      A
 Frequencies --   1512.1182              1515.3417              1542.0562
 Red. masses --      1.0871                 1.0411                 3.4310
 Frc consts  --      1.4645                 1.4085                 4.8069
 IR Inten    --      7.8905                20.3830                32.1633

                     76                     77                     78
                      A                      A                      A
 Frequencies --   1613.8585              1633.8216              1645.3822
 Red. masses --      7.2635                 6.6542                 5.7441
 Frc consts  --     11.1462                10.4654                 9.1624
 IR Inten    --     70.1079               103.0453               118.1198

                     79                     80                     81
                      A                      A                      A
 Frequencies --   1696.9207              1730.9580              3064.3339
 Red. masses --      7.2346                 6.3671                 1.0413
 Frc consts  --     12.2741                11.2400                 5.7610
 IR Inten    --    496.8046               894.6530                15.0464

                     82                     83                     84
                      A                      A                      A
 Frequencies --   3066.0946              3075.8299              3076.9838
 Red. masses --      1.0533                 1.0570                 1.0329
 Frc consts  --      5.8343                 5.8918                 5.7619
 IR Inten    --      0.1616                25.1416                 3.6779

                     85                     86                     87
                      A                      A                      A
 Frequencies --   3105.8814              3129.8977              3141.5326
 Red. masses --      1.1047                 1.1079                 1.1059
 Frc consts  --      6.2786                 6.3948                 6.4304
 IR Inten    --      0.3558                 0.4625                30.6376

                     88                     89                     90
                      A                      A                      A
 Frequencies --   3148.5363              3170.5600              3216.3960
 Red. masses --      1.1017                 1.1114                 1.0929
 Frc consts  --      6.4346                 6.5825                 6.6616
 IR Inten    --     17.8552                 0.7000                 0.0858

                     91                     92                     93
                      A                      A                      A
 Frequencies --   3220.7466              3231.6957              3253.0768
 Red. masses --      1.1040                 1.0911                 1.0929
 Frc consts  --      6.7472                 6.7138                 6.8143
 IR Inten    --      2.7218                 0.0196                 0.2319

                     94                     95                     96
                      A                      A                      A
 Frequencies --   3562.9589              3674.7554              3828.0820
 Red. masses --      1.0777                 1.0824                 1.0670
 Frc consts  --      8.0608                 8.6118                 9.2123
 IR Inten    --    144.5477               134.6685               310.9276

 - Thermochemistry -
 -------------------
 Temperature     0.001 Kelvin.  Pressure   1.00000 Atm.
 Atom     1 has atomic number  6 and mass  12.00000

 Molecular mass:   266.09632 amu.
 Principal axes and moments of inertia in atomic units:
                           1         2         3
     Eigenvalues --   960.18122********************
           X            0.99998  -0.00500   0.00237
           Y            0.00497   0.99995   0.00911
           Z           -0.00242  -0.00910   0.99996
 This molecule is an asymmetric top.
 Rotational symmetry number  1.
 Warning -- assumption of classical behavior for rotation
           may cause significant error
 Rotational temperatures (Kelvin)      0.09021     0.00535     0.00517
 Rotational constants (GHZ):           1.87958     0.11145     0.10768
 Zero-point vibrational energy     730003.4 (Joules/Mol)
                                  174.47501 (Kcal/Mol)
 Vibrational temperatures:      9.70    38.68    67.41    85.01   116.27
          (Kelvin)            118.61   161.62   164.32   182.07   260.61
                              271.64   303.43   337.18   355.43   393.69
                              422.63   456.47   516.29   536.63   550.55
                              578.84   607.36   617.95   666.20   764.73
                              863.93   870.67   906.09   944.07  1004.08
                             1030.69  1084.58  1098.41  1100.20  1120.99
                             1145.09  1194.64  1235.12  1273.25  1284.27
                             1327.21  1353.22  1387.53  1416.31  1497.41
                             1533.14  1551.35  1568.69  1613.92  1639.30
                             1676.17  1682.91  1693.95  1730.40  1756.91
                             1798.82  1810.76  1828.32  1883.21  1902.10
                             1916.04  1941.79  1986.11  1999.57  2040.81
                             2103.14  2119.49  2145.23  2153.84  2155.47
                             2164.44  2165.62  2175.60  2180.24  2218.67
                             2321.98  2350.70  2367.34  2441.49  2490.46
                             4408.89  4411.43  4425.43  4427.09  4468.67
                             4503.22  4519.96  4530.04  4561.73  4627.68
                             4633.94  4649.69  4680.45  5126.30  5287.15
                             5507.76

 Zero-point correction=                           0.278044 (Hartree/Particle)
 Thermal correction to Energy=                    0.278044
 Thermal correction to Enthalpy=                  0.278044
 Thermal correction to Gibbs Free Energy=         0.278044
 Sum of electronic and zero-point Energies=          -1179.175835
 Sum of electronic and thermal Energies=             -1179.175835
 Sum of electronic and thermal Enthalpies=           -1179.175835
 Sum of electronic and thermal Free Energies=        -1179.175835

                     E (Thermal)             CV                S
                      KCal/Mol        Cal/Mol-Kelvin    Cal/Mol-Kelvin
 Total                  174.475              5.962            -23.641
 Electronic               0.000              0.000              0.000
 Translational            0.000              2.981            -19.988
 Rotational               0.000              2.981             -3.653
 Vibrational            174.475              0.000              0.000

 Optimization completed.
    -- Stationary point found.
 Normal termination of Gaussian 16 at Thu Jan  2 16:16:12 2020.
