 Gaussian 16, Revision A.03,
 Gaussian 16:  ES64L-G16RevA.03 25-Dec-2016

 -------------------------------------------------------------------
 #P opt freq m062x/6-311++g(d,p) geom=connectivity temperature=0.001
 -------------------------------------------------------------------

 ----------------
 albendazole plus
 ----------------
 Symbolic Z-matrix:
 Charge =  1 Multiplicity = 1

 SCF Done:  E(RM062X) =  -1179.46815642     A.U. after   15 cycles
 SCF Done:  E(RM062X) =  -1179.50212078     A.U. after   14 cycles
 SCF Done:  E(RM062X) =  -1179.50981355     A.U. after   13 cycles
 SCF Done:  E(RM062X) =  -1179.51185069     A.U. after   14 cycles
 SCF Done:  E(RM062X) =  -1179.51337405     A.U. after   13 cycles
 SCF Done:  E(RM062X) =  -1179.51378795     A.U. after   14 cycles
 SCF Done:  E(RM062X) =  -1179.51407943     A.U. after   14 cycles
 SCF Done:  E(RM062X) =  -1179.51427663     A.U. after   13 cycles
 SCF Done:  E(RM062X) =  -1179.51481332     A.U. after   15 cycles
 SCF Done:  E(RM062X) =  -1179.51475416     A.U. after   16 cycles
 SCF Done:  E(RM062X) =  -1179.51645207     A.U. after   12 cycles
 SCF Done:  E(RM062X) =  -1179.51645854     A.U. after   12 cycles
 SCF Done:  E(RM062X) =  -1179.51646913     A.U. after   10 cycles
 SCF Done:  E(RM062X) =  -1179.51647245     A.U. after   11 cycles
 SCF Done:  E(RM062X) =  -1179.51647427     A.U. after   10 cycles
 SCF Done:  E(RM062X) =  -1179.51647452     A.U. after    8 cycles
 SCF Done:  E(RM062X) =  -1179.51647469     A.U. after    9 cycles
 SCF Done:  E(RM062X) =  -1179.51647475     A.U. after    9 cycles
 SCF Done:  E(RM062X) =  -1179.51647477     A.U. after    8 cycles
 Optimization completed.
    -- Stationary point found.
 Normal termination of Gaussian 16 at Mon Oct 14 19:36:23 2019.

 ----------------------------------------------------------------------
 #P Geom=AllCheck Guess=TCheck SCRF=Check GenChk RM062X/6-311++G(d,p) F
 req
 ----------------------------------------------------------------------

 Structure from the checkpoint file:  "03_p.chk"
 ----------------
 albendazole plus
 ----------------
 Charge =  1 Multiplicity = 1

                         Standard orientation:
 ---------------------------------------------------------------------
 Center     Atomic      Atomic             Coordinates (Angstroms)
 Number     Number       Type             X           Y           Z
 ---------------------------------------------------------------------
      1          6           0       -2.121063   -0.385880   -0.000072
      2          6           0       -1.836570    0.996468   -0.000164
      3          6           0       -0.538888    1.483843   -0.000260
      4          6           0        0.484933    0.549662   -0.000267
      5          6           0        0.210424   -0.816795   -0.000155
      6          6           0       -1.077047   -1.317866   -0.000039
      7          7           0        1.880977    0.677590   -0.000240
      8          6           0        2.427627   -0.534572   -0.000065
      9          7           0        1.457999   -1.461458   -0.000033
     10          7           0        3.755097   -0.812210   -0.000020
     11          6           0        4.737380    0.192890    0.000093
     12          8           0        5.924519   -0.360743    0.000043
     13          1           0        1.607109   -2.460609    0.000028
     14          1           0        4.068686   -1.774346    0.000035
     15          6           0        7.044904    0.555853    0.000204
     16          8           0        4.468497    1.363269    0.000222
     17         16           0       -3.750093   -1.050401    0.000030
     18          6           0       -4.823998    0.419418    0.000081
     19          6           0       -6.278876   -0.045844    0.000183
     20          6           0       -7.230486    1.148634    0.000158
     21          1           0       -4.617533    1.014078   -0.892641
     22          1           0       -4.617442    1.014120    0.892757
     23          1           0       -6.460326   -0.669164   -0.879254
     24          1           0       -6.460206   -0.669062    0.879715
     25          1           0       -8.268293    0.814128    0.000280
     26          1           0       -7.079831    1.771796    0.884578
     27          1           0       -7.079966    1.771619   -0.884407
     28          1           0       -1.277849   -2.382357    0.000034
     29          1           0       -2.648127    1.710036   -0.000155
     30          1           0       -0.342216    2.548139   -0.000330
     31          1           0        7.006034    1.175955   -0.893282
     32          1           0        7.006154    1.175479    0.894026
     33          1           0        7.925546   -0.077362   -0.000022
     34          1           0        2.447056    1.521438   -0.000092
 ---------------------------------------------------------------------

 SCF Done:  E(RM062X) =  -1179.51647477     A.U. after    1 cycles

 The electronic state is 1-A.
 Alpha  occ. eigenvalues --  -90.00090 -19.82452 -19.77279 -14.98619 -14.97923
 Alpha  occ. eigenvalues --  -14.97862 -10.87050 -10.86493 -10.74391 -10.73655
 Alpha  occ. eigenvalues --  -10.71912 -10.70933 -10.69137 -10.68765 -10.67781
 Alpha  occ. eigenvalues --  -10.66476 -10.62587 -10.60372  -8.36659  -6.28806
 Alpha  occ. eigenvalues --   -6.28529  -6.28166  -1.41389  -1.35203  -1.31321
 Alpha  occ. eigenvalues --   -1.23369  -1.20133  -1.11000  -1.03233  -1.00386
 Alpha  occ. eigenvalues --   -0.99317  -0.97085  -0.92765  -0.92453  -0.88829
 Alpha  occ. eigenvalues --   -0.87356  -0.83981  -0.82109  -0.80285  -0.78090
 Alpha  occ. eigenvalues --   -0.76347  -0.76177  -0.75458  -0.75129  -0.71645
 Alpha  occ. eigenvalues --   -0.71566  -0.70732  -0.66876  -0.65248  -0.64746
 Alpha  occ. eigenvalues --   -0.64031  -0.63989  -0.63485  -0.59011  -0.57982
 Alpha  occ. eigenvalues --   -0.57883  -0.57101  -0.56985  -0.56194  -0.55751
 Alpha  occ. eigenvalues --   -0.53712  -0.53532  -0.52816  -0.50298  -0.48861
 Alpha  occ. eigenvalues --   -0.48384  -0.47498  -0.46074  -0.43654  -0.37009
 Alpha virt. eigenvalues --   -0.14745  -0.13308  -0.10327  -0.10059  -0.09778
 Alpha virt. eigenvalues --   -0.09510  -0.07873  -0.07627  -0.07449  -0.07389
 Alpha virt. eigenvalues --   -0.06134  -0.05582  -0.05544  -0.05208  -0.05097

 Mulliken charges:
               1
     1  C    0.869852
     2  C   -0.025427
     3  C   -0.592928
     4  C   -0.141171
     5  C    0.221885
     6  C   -0.451263
     7  N   -0.249867
     8  C    0.676969
     9  N   -0.214149
    10  N   -0.555818
    11  C   -0.044368
    12  O   -0.046993
    13  H    0.374865
    14  H    0.366717
    15  C   -0.208841
    16  O   -0.240298
    17  S   -0.750128
    18  C   -0.243772
    19  C   -0.150130
    20  C   -0.621904
    21  H    0.191841
    22  H    0.191854
    23  H    0.175345
    24  H    0.175339
    25  H    0.206859
    26  H    0.156213
    27  H    0.156216
    28  H    0.251976
    29  H    0.214687
    30  H    0.246380
    31  H    0.212105
    32  H    0.212111
    33  H    0.211918
    34  H    0.423926
 Sum of Mulliken charges =   1.00000

 Dipole moment (field-independent basis, Debye):
    X=              8.3673    Y=             -1.6214    Z=              0.0002  Tot=              8.5230
 Quadrupole moment (field-independent basis, Debye-Ang):
   XX=            -12.0123   YY=            -93.9667   ZZ=           -115.1574
   XY=            -13.1808   XZ=              0.0009   YZ=             -0.0013

  Exact polarizability: 319.403  -3.159 163.422  -0.001  -0.002 106.289
 Approx polarizability: 299.196  -3.279 235.389  -0.002  -0.004 144.566

                      1                      2                      3
                      A                      A                      A
 Frequencies --      8.4764                34.5577                60.4955
 Red. masses --      4.5408                 5.8105                 4.2367
 Frc consts  --      0.0002                 0.0041                 0.0091
 IR Inten    --      1.1485                 0.3597                 0.3294

                      4                      5                      6
                      A                      A                      A
 Frequencies --     68.9714                83.5582               101.5476
 Red. masses --      2.6764                 1.9357                 2.8710
 Frc consts  --      0.0075                 0.0080                 0.0174
 IR Inten    --      2.7331                 0.6356                 1.0348

                      7                      8                      9
                      A                      A                      A
 Frequencies --    109.4159               120.5734               124.0821
 Red. masses --      4.7072                 1.6273                 2.6824
 Frc consts  --      0.0332                 0.0139                 0.0243
 IR Inten    --      0.4471                 1.7083                 0.8453

                     10                     11                     12
                      A                      A                      A
 Frequencies --    165.1253               186.9997               205.5014
 Red. masses --      4.0207                 5.7745                 4.6188
 Frc consts  --      0.0646                 0.1190                 0.1149
 IR Inten    --      2.7257                 0.3353                 6.5876

                     13                     14                     15
                      A                      A                      A
 Frequencies --    229.3008               242.9782               276.7613
 Red. masses --      4.5261                 1.1695                 4.1713
 Frc consts  --      0.1402                 0.0407                 0.1882
 IR Inten    --      3.5956                 0.0050                12.2260

                     16                     17                     18
                      A                      A                      A
 Frequencies --    278.0189               336.3277               359.3535
 Red. masses --      5.1532                 5.4214                 8.8647
 Frc consts  --      0.2347                 0.3613                 0.6745
 IR Inten    --      0.0426                 6.9227                 0.0961

                     19                     20                     21
                      A                      A                      A
 Frequencies --    371.9173               386.9377               416.1076
 Red. masses --      5.0994                 4.7739                 2.9500
 Frc consts  --      0.4156                 0.4211                 0.3009
 IR Inten    --     23.9805                 2.5594                 3.9702

                     22                     23                     24
                      A                      A                      A
 Frequencies --    438.6523               442.3438               511.0879
 Red. masses --      1.1109                 8.3164                 4.7412
 Frc consts  --      0.1259                 0.9587                 0.7297
 IR Inten    --      1.1512                 6.9703                 6.8388

                     25                     26                     27
                      A                      A                      A
 Frequencies --    531.0056               591.6163               596.6631
 Red. masses --      1.1744                 4.4617                 6.5302
 Frc consts  --      0.1951                 0.9201                 1.3697
 IR Inten    --    173.3294                 2.6851                 1.7759

                     28                     29                     30
                      A                      A                      A
 Frequencies --    701.3976               705.1113               715.6202
 Red. masses --      1.3673                 6.2044                 7.3076
 Frc consts  --      0.3963                 1.8175                 2.2049
 IR Inten    --     82.4846                 2.7563                 0.6816

                     31                     32                     33
                      A                      A                      A
 Frequencies --    720.0762               747.6699               763.9362
 Red. masses --      3.2804                 5.8235                 1.0876
 Frc consts  --      1.0022                 1.9180                 0.3740
 IR Inten    --     14.4373                16.2997                 9.0187

                     34                     35                     36
                      A                      A                      A
 Frequencies --    778.0971               785.1751               786.2774
 Red. masses --      5.6408                 9.9818                 5.3907
 Frc consts  --      2.0122                 3.6257                 1.9636
 IR Inten    --      4.8915                40.8976                17.2389

                     37                     38                     39
                      A                      A                      A
 Frequencies --    820.8156               858.6085               882.6954
 Red. masses --      1.4019                 1.3152                 3.7549
 Frc consts  --      0.5565                 0.5713                 1.7237
 IR Inten    --     45.5533                 8.6283                 3.2758

                     40                     41                     42
                      A                      A                      A
 Frequencies --    885.6266               922.2846               937.4115
 Red. masses --      1.1795                 1.8687                 4.6688
 Frc consts  --      0.5451                 0.9365                 2.4172
 IR Inten    --      0.1116                 2.7863                47.1731

                     43                     44                     45
                      A                      A                      A
 Frequencies --    971.0619               994.7866              1055.4087
 Red. masses --      1.3014                 5.7327                 6.1443
 Frc consts  --      0.7231                 3.3425                 4.0324
 IR Inten    --      1.3746                54.0311                 4.5091

                     46                     47                     48
                      A                      A                      A
 Frequencies --   1065.2222              1077.2940              1092.5050
 Red. masses --      2.6454                 1.1927                 2.2239
 Frc consts  --      1.7686                 0.8155                 1.5639
 IR Inten    --      0.4742                 1.0726                66.6210

                     49                     50                     51
                      A                      A                      A
 Frequencies --   1121.1726              1127.7055              1166.9797
 Red. masses --      2.1674                 2.8377                 1.4994
 Frc consts  --      1.6052                 2.1262                 1.2031
 IR Inten    --     14.4149                11.8510                 7.3926

                     52                     53                     54
                      A                      A                      A
 Frequencies --   1188.1976              1220.8566              1223.0041
 Red. masses --      1.2685                 2.0641                 1.5389
 Frc consts  --      1.0552                 1.8126                 1.3562
 IR Inten    --      1.2053                 2.9320                85.8337

                     55                     56                     57
                      A                      A                      A
 Frequencies --   1234.1771              1250.4728              1267.2537
 Red. masses --      1.5236                 1.3650                 1.3339
 Frc consts  --      1.3674                 1.2576                 1.2621
 IR Inten    --      9.7541                 0.0088                16.8737

                     58                     59                     60
                      A                      A                      A
 Frequencies --   1278.1778              1284.6272              1323.4011
 Red. masses --      1.4427                 2.7185                 6.6963
 Frc consts  --      1.3887                 2.6432                 6.9098
 IR Inten    --     35.7030               587.4679                58.1648

                     61                     62                     63
                      A                      A                      A
 Frequencies --   1333.6061              1350.4146              1377.0853
 Red. masses --      1.0960                 2.3012                 1.6437
 Frc consts  --      1.1485                 2.4725                 1.8365
 IR Inten    --      0.7933               297.8509                 6.6530

                     64                     65                     66
                      A                      A                      A
 Frequencies --   1387.8164              1421.2246              1452.0771
 Red. masses --      1.9092                 1.2546                 2.2851
 Frc consts  --      2.1666                 1.4930                 2.8389
 IR Inten    --     15.6383                 4.0888               277.1489

                     67                     68                     69
                      A                      A                      A
 Frequencies --   1490.0212              1491.0089              1497.4690
 Red. masses --      1.1045                 1.7885                 1.0408
 Frc consts  --      1.4447                 2.3425                 1.3750
 IR Inten    --     25.6150                86.0175                16.4636

                     70                     71                     72
                      A                      A                      A
 Frequencies --   1498.1727              1498.4607              1504.6488
 Red. masses --      1.2127                 1.5361                 1.1469
 Frc consts  --      1.6037                 2.0321                 1.5298
 IR Inten    --     25.0655                29.8578                 7.7348

                     73                     74                     75
                      A                      A                      A
 Frequencies --   1505.1642              1511.9866              1531.4038
 Red. masses --      1.0375                 1.0876                 2.7485
 Frc consts  --      1.3848                 1.4650                 3.7978
 IR Inten    --     12.0938                12.2187               285.0055

                     76                     77                     78
                      A                      A                      A
 Frequencies --   1617.8778              1664.1175              1700.2324
 Red. masses --      3.8019                 8.6748                 7.0871
 Frc consts  --      5.8633                14.1539                12.0709
 IR Inten    --    266.7151                24.5691                44.4614

                     79                     80                     81
                      A                      A                      A
 Frequencies --   1715.6636              1873.6968              3065.5066
 Red. masses --      5.4477                10.1325                 1.0458
 Frc consts  --      9.4478                20.9587                 5.7903
 IR Inten    --    843.4275               349.1022                10.8713

                     82                     83                     84
                      A                      A                      A
 Frequencies --   3066.7879              3077.0163              3103.0632
 Red. masses --      1.0490                 1.0569                 1.0297
 Frc consts  --      5.8127                 5.8957                 5.8420
 IR Inten    --      1.6475                22.6649                 8.9517

                     85                     86                     87
                      A                      A                      A
 Frequencies --   3107.8218              3131.3247              3142.8953
 Red. masses --      1.1051                 1.1081                 1.1060
 Frc consts  --      6.2885                 6.4017                 6.4367
 IR Inten    --      0.2172                 0.5006                27.3670

                     88                     89                     90
                      A                      A                      A
 Frequencies --   3151.8658              3193.8662              3220.1646
 Red. masses --      1.1015                 1.1096                 1.0935
 Frc consts  --      6.4472                 6.6688                 6.6807
 IR Inten    --     14.7080                 3.0046                 1.2610

                     91                     92                     93
                      A                      A                      A
 Frequencies --   3227.2483              3232.8372              3254.4594
 Red. masses --      1.1085                 1.0922                 1.0930
 Frc consts  --      6.8024                 6.7255                 6.8205
 IR Inten    --      0.8344                 0.6238                 1.0405

                     94                     95                     96
                      A                      A                      A
 Frequencies --   3569.4117              3633.0650              3658.7830
 Red. masses --      1.0834                 1.0794                 1.0829
 Frc consts  --      8.1324                 8.3945                 8.5410
 IR Inten    --    307.6998               144.6529               175.1018

 - Thermochemistry -
 -------------------
 Temperature     0.001 Kelvin.  Pressure   1.00000 Atm.
 Atom     1 has atomic number  6 and mass  12.00000

 Molecular mass:   266.09632 amu.
 Principal axes and moments of inertia in atomic units:
                           1         2         3
     Eigenvalues --   915.69763********************
           X            0.99998  -0.00621  -0.00000
           Y            0.00621   0.99998  -0.00000
           Z            0.00000   0.00000   1.00000
 This molecule is an asymmetric top.
 Rotational symmetry number  1.
 Warning -- assumption of classical behavior for rotation
           may cause significant error
 Rotational temperatures (Kelvin)      0.09459     0.00535     0.00507
 Rotational constants (GHZ):           1.97089     0.11141     0.10573
 Zero-point vibrational energy     732651.4 (Joules/Mol)
                                  175.10789 (Kcal/Mol)
 Vibrational temperatures:     12.20    49.72    87.04    99.23   120.22
          (Kelvin)            146.10   157.43   173.48   178.53   237.58
                              269.05   295.67   329.91   349.59   398.20
                              400.01   483.90   517.03   535.11   556.72
                              598.69   631.12   636.43   735.34   764.00
                              851.20   858.47  1009.15  1014.50  1029.62
                             1036.03  1075.73  1099.13  1119.51  1129.69
                             1131.28  1180.97  1235.35  1270.00  1274.22
                             1326.96  1348.73  1397.14  1431.28  1518.50
                             1532.62  1549.99  1571.87  1613.12  1622.52
                             1679.02  1709.55  1756.54  1759.63  1775.71
                             1799.15  1823.30  1839.01  1848.29  1904.08
                             1918.76  1942.95  1981.32  1996.76  2044.83
                             2089.22  2143.81  2145.23  2154.52  2155.54
                             2155.95  2164.85  2165.60  2175.41  2203.35
                             2327.77  2394.29  2446.26  2468.46  2695.83
                             4410.58  4412.42  4427.14  4464.62  4471.46
                             4505.28  4521.93  4534.83  4595.26  4633.10
                             4643.29  4651.33  4682.44  5135.59  5227.17
                             5264.17

 Zero-point correction=                           0.279052 (Hartree/Particle)
 Thermal correction to Energy=                    0.279052
 Thermal correction to Enthalpy=                  0.279052
 Thermal correction to Gibbs Free Energy=         0.279052
 Sum of electronic and zero-point Energies=          -1179.237423
 Sum of electronic and thermal Energies=             -1179.237423
 Sum of electronic and thermal Enthalpies=           -1179.237423
 Sum of electronic and thermal Free Energies=        -1179.237423

                     E (Thermal)             CV                S
                      KCal/Mol        Cal/Mol-Kelvin    Cal/Mol-Kelvin
 Total                  175.108              5.962            -23.670
 Electronic               0.000              0.000              0.000
 Translational            0.000              2.981            -19.988
 Rotational               0.000              2.981             -3.682
 Vibrational            175.108              0.000              0.000

 Optimization completed.
    -- Stationary point found.
 Normal termination of Gaussian 16 at Mon Oct 14 19:48:42 2019.
