 Gaussian 16, Revision A.03,
 Gaussian 16:  ES64L-G16RevA.03 25-Dec-2016

 -------------------------------------------------------------------
 #p opt freq m062x/6-311++g(d,p) geom=connectivity temperature=0.001
 -------------------------------------------------------------------

 --------------------
 methionine_sulfoxide
 --------------------
 Symbolic Z-matrix:
 Charge =  0 Multiplicity = 1

 SCF Done:  E(RM062X) =  -875.638009801     A.U. after   16 cycles
 SCF Done:  E(RM062X) =  -875.663308632     A.U. after   14 cycles
 SCF Done:  E(RM062X) =  -875.671138100     A.U. after   13 cycles
 SCF Done:  E(RM062X) =  -875.672359806     A.U. after   14 cycles
 SCF Done:  E(RM062X) =  -875.673223010     A.U. after   13 cycles
 SCF Done:  E(RM062X) =  -875.673803005     A.U. after   13 cycles
 SCF Done:  E(RM062X) =  -875.674025894     A.U. after   14 cycles
 SCF Done:  E(RM062X) =  -875.674089836     A.U. after   12 cycles
 SCF Done:  E(RM062X) =  -875.674133124     A.U. after   11 cycles
 SCF Done:  E(RM062X) =  -875.674210145     A.U. after   12 cycles
 SCF Done:  E(RM062X) =  -875.674238759     A.U. after   12 cycles
 SCF Done:  E(RM062X) =  -875.674320134     A.U. after   13 cycles
 SCF Done:  E(RM062X) =  -875.674382667     A.U. after   13 cycles
 SCF Done:  E(RM062X) =  -875.674386306     A.U. after   11 cycles
 SCF Done:  E(RM062X) =  -875.674388890     A.U. after   11 cycles
 SCF Done:  E(RM062X) =  -875.674388944     A.U. after   11 cycles
 SCF Done:  E(RM062X) =  -875.674389138     A.U. after    9 cycles
 Optimization completed.
    -- Stationary point found.
 Normal termination of Gaussian 16 at Mon Oct 14 09:08:58 2019.

 ----------------------------------------------------------------------
 #P Geom=AllCheck Guess=TCheck SCRF=Check GenChk RM062X/6-311++G(d,p) F
 req
 ----------------------------------------------------------------------

 Structure from the checkpoint file:  "04.chk"
 --------------------
 methionine_sulfoxide
 --------------------
 Charge =  0 Multiplicity = 1

                         Standard orientation:
 ---------------------------------------------------------------------
 Center     Atomic      Atomic             Coordinates (Angstroms)
 Number     Number       Type             X           Y           Z
 ---------------------------------------------------------------------
      1          6           0        2.533223   -1.663722    0.085395
      2         16           0        2.483162    0.112052    0.451298
      3          6           0        0.978808    0.506936   -0.496920
      4          8           0        3.626252    0.721305   -0.316833
      5          6           0       -0.267433   -0.178159    0.044921
      6          6           0       -1.546369    0.485172   -0.499604
      7          6           0       -2.715420   -0.415638   -0.121155
      8          8           0       -3.246520   -0.088907    1.073428
      9          8           0       -3.101961   -1.344869   -0.772821
     10          7           0       -1.628977    1.859636   -0.042325
     11          1           0        3.486504   -2.023439    0.469821
     12          1           0        1.713171   -2.178294    0.586426
     13          1           0        2.494635   -1.800688   -0.996199
     14          1           0        1.191712    0.243693   -1.536456
     15          1           0        0.885933    1.591216   -0.418885
     16          1           0       -0.290404   -0.116793    1.140172
     17          1           0       -0.279327   -1.235829   -0.229207
     18          1           0       -1.505377    0.474851   -1.591413
     19          1           0       -3.946419   -0.727268    1.267542
     20          1           0       -2.370687    2.362578   -0.515178
     21          1           0       -1.826509    1.891926    0.952870
 ---------------------------------------------------------------------

 SCF Done:  E(RM062X) =  -875.674389138     A.U. after    1 cycles

 The electronic state is 1-A.
 Alpha  occ. eigenvalues --  -89.99684 -19.69565 -19.63990 -19.57524 -14.75471
 Alpha  occ. eigenvalues --  -10.69686 -10.60984 -10.57528 -10.57367 -10.57015
 Alpha  occ. eigenvalues --   -8.35355  -6.27416  -6.27348  -6.26992  -1.26494
 Alpha  occ. eigenvalues --   -1.16881  -1.12765  -1.03157  -0.92300  -0.86818
 Alpha  occ. eigenvalues --   -0.82270  -0.75742  -0.70879  -0.68258  -0.61474
 Alpha  occ. eigenvalues --   -0.60938  -0.59167  -0.56609  -0.55351  -0.54345
 Alpha  occ. eigenvalues --   -0.52398  -0.51545  -0.50191  -0.49049  -0.47044
 Alpha  occ. eigenvalues --   -0.46256  -0.44384  -0.43525  -0.42309  -0.41813
 Alpha  occ. eigenvalues --   -0.40286  -0.33648  -0.32826  -0.29304
 Alpha virt. eigenvalues --   -0.01731  -0.00124   0.00121   0.00815   0.01910
 Alpha virt. eigenvalues --    0.02137   0.02559   0.03144   0.04041   0.04450
 Alpha virt. eigenvalues --    0.05238   0.05793   0.06311   0.06705   0.06922

 Mulliken charges:
               1
     1  C   -0.697063
     2  S    0.779248
     3  C   -0.730471
     4  O   -0.464865
     5  C    0.082706
     6  C   -0.716690
     7  C   -0.225222
     8  O   -0.174507
     9  O   -0.235114
    10  N   -0.243479
    11  H    0.218332
    12  H    0.142067
    13  H    0.229606
    14  H    0.265854
    15  H    0.297376
    16  H    0.173718
    17  H    0.188887
    18  H    0.264734
    19  H    0.305631
    20  H    0.259789
    21  H    0.279462
 Sum of Mulliken charges =  -0.00000

 Dipole moment (field-independent basis, Debye):
    X=             -4.7287    Y=             -1.5679    Z=              1.8669  Tot=              5.3201
 Quadrupole moment (field-independent basis, Debye-Ang):
   XX=            -82.8323   YY=            -69.0007   ZZ=            -67.2499
   XY=            -15.1504   XZ=             -2.0881   YZ=             -3.2985

  Exact polarizability: 116.404   2.357  96.090  -1.492   0.989  82.218
 Approx polarizability: 120.144   7.283 117.497  -1.951   2.930 108.217

                      1                      2                      3
                      A                      A                      A
 Frequencies --     21.8806                41.3220                62.9429
 Red. masses --      8.4060                 4.7509                 3.5931
 Frc consts  --      0.0024                 0.0048                 0.0084
 IR Inten    --      2.2246                 4.6163                 1.9072

                      4                      5                      6
                      A                      A                      A
 Frequencies --     83.3357               145.3144               197.3230
 Red. masses --      4.5661                 2.4696                 5.7020
 Frc consts  --      0.0187                 0.0307                 0.1308
 IR Inten    --      2.8979                 1.5132                 1.4251

                      7                      8                      9
                      A                      A                      A
 Frequencies --    216.6737               239.7548               278.8248
 Red. masses --      1.5932                 1.9124                 1.1017
 Frc consts  --      0.0441                 0.0648                 0.0505
 IR Inten    --      2.0527                 3.4047                47.5471

                     10                     11                     12
                      A                      A                      A
 Frequencies --    295.3917               324.1055               345.4888
 Red. masses --      3.9267                 3.5949                 3.3260
 Frc consts  --      0.2019                 0.2225                 0.2339
 IR Inten    --      3.4832                10.5999                 4.8932

                     13                     14                     15
                      A                      A                      A
 Frequencies --    385.4716               402.7008               549.0636
 Red. masses --      3.4246                 3.5722                 3.6647
 Frc consts  --      0.2998                 0.3413                 0.6509
 IR Inten    --      5.8529                 8.1206                 5.7030

                     16                     17                     18
                      A                      A                      A
 Frequencies --    600.7658               637.7747               684.8009
 Red. masses --      1.2479                 2.9883                 4.2004
 Frc consts  --      0.2654                 0.7161                 1.1606
 IR Inten    --    120.1567                46.3498                10.0302

                     19                     20                     21
                      A                      A                      A
 Frequencies --    771.0125               772.5315               784.1081
 Red. masses --      4.7876                 1.3481                 4.2330
 Frc consts  --      1.6768                 0.4740                 1.5334
 IR Inten    --     37.6176                 3.5069                 7.5138

                     22                     23                     24
                      A                      A                      A
 Frequencies --    839.1196               923.6987               934.3945
 Red. masses --      1.8922                 1.4226                 2.3845
 Frc consts  --      0.7850                 0.7151                 1.2266
 IR Inten    --    128.3777                 3.0246                81.8531

                     25                     26                     27
                      A                      A                      A
 Frequencies --    959.3545               984.3262              1027.3880
 Red. masses --      1.4549                 2.0133                 1.5822
 Frc consts  --      0.7890                 1.1493                 0.9840
 IR Inten    --     10.7409                 6.7151                 6.6589

                     28                     29                     30
                      A                      A                      A
 Frequencies --   1065.0537              1079.4934              1129.5889
 Red. masses --      4.0929                 4.0418                 1.1736
 Frc consts  --      2.7354                 2.7750                 0.8823
 IR Inten    --     93.0988                87.1332                 4.1026

                     31                     32                     33
                      A                      A                      A
 Frequencies --   1164.4745              1200.9251              1250.0928
 Red. masses --      2.5462                 1.9549                 1.2605
 Frc consts  --      2.0343                 1.6612                 1.1606
 IR Inten    --     19.8712               209.2449                13.9333

                     34                     35                     36
                      A                      A                      A
 Frequencies --   1261.7601              1312.0811              1337.2432
 Red. masses --      1.4935                 1.3393                 1.2841
 Frc consts  --      1.4009                 1.3584                 1.3529
 IR Inten    --     10.9922                 6.6661                 5.5416

                     37                     38                     39
                      A                      A                      A
 Frequencies --   1345.5138              1378.2984              1387.8518
 Red. masses --      1.2348                 2.2210                 1.5298
 Frc consts  --      1.3171                 2.4859                 1.7361
 IR Inten    --     11.3766                69.4985                 1.0750

                     40                     41                     42
                      A                      A                      A
 Frequencies --   1409.7252              1452.2395              1466.5477
 Red. masses --      1.3486                 1.0486                 1.0662
 Frc consts  --      1.5790                 1.3030                 1.3511
 IR Inten    --     11.7017                10.1970                 5.3424

                     43                     44                     45
                      A                      A                      A
 Frequencies --   1480.9982              1494.0813              1668.4220
 Red. masses --      1.0794                 1.0914                 1.1010
 Frc consts  --      1.3949                 1.4355                 1.8056
 IR Inten    --     16.3522                 6.0850                47.0709

                     46                     47                     48
                      A                      A                      A
 Frequencies --   1876.3463              3045.8278              3071.8010
 Red. masses --     10.3608                 1.0656                 1.0300
 Frc consts  --     21.4917                 5.8243                 5.7265
 IR Inten    --    342.2967                 6.2718                 2.9981

                     49                     50                     51
                      A                      A                      A
 Frequencies --   3082.7926              3104.2722              3116.9055
 Red. masses --      1.0599                 1.0862                 1.0975
 Frc consts  --      5.9349                 6.1668                 6.2821
 IR Inten    --      4.3245                 3.6548                11.0288

                     52                     53                     54
                      A                      A                      A
 Frequencies --   3153.7752              3176.8815              3183.4808
 Red. masses --      1.1050                 1.1069                 1.1052
 Frc consts  --      6.4757                 6.5823                 6.5992
 IR Inten    --      2.4482                 1.8138                 1.1053

                     55                     56                     57
                      A                      A                      A
 Frequencies --   3546.3276              3630.4186              3831.2142
 Red. masses --      1.0501                 1.0937                 1.0649
 Frc consts  --      7.7810                 8.4929                 9.2094
 IR Inten    --      8.9860                14.4978               114.5104

 - Thermochemistry -
 -------------------
 Temperature     0.001 Kelvin.  Pressure   1.00000 Atm.
 Atom     1 has atomic number  6 and mass  12.00000

 Molecular mass:   165.04597 amu.
 Principal axes and moments of inertia in atomic units:
                           1         2         3
     Eigenvalues --   738.600593850.120844209.26874
           X            0.99972  -0.02296  -0.00507
           Y            0.02284   0.99948  -0.02262
           Z            0.00558   0.02249   0.99973
 This molecule is an asymmetric top.
 Rotational symmetry number  1.
 Warning -- assumption of classical behavior for rotation
           may cause significant error
 Rotational temperatures (Kelvin)      0.11727     0.02250     0.02058
 Rotational constants (GHZ):           2.44346     0.46875     0.42875
 Zero-point vibrational energy     449875.5 (Joules/Mol)
                                  107.52281 (Kcal/Mol)
 Vibrational temperatures:     31.48    59.45    90.56   119.90   209.07
          (Kelvin)            283.90   311.75   344.95   401.17   425.00
                              466.32   497.08   554.61   579.40   789.98
                              864.37   917.62   985.28  1109.31  1111.50
                             1128.16  1207.31  1329.00  1344.39  1380.30
                             1416.23  1478.18  1532.37  1553.15  1625.23
                             1675.42  1727.86  1798.60  1815.39  1887.79
                             1923.99  1935.89  1983.06  1996.81  2028.28
                             2089.45  2110.03  2130.83  2149.65  2400.49
                             2699.64  4382.27  4419.64  4435.45  4466.36
                             4484.53  4537.58  4570.82  4580.32  5102.37
                             5223.36  5512.26

 Zero-point correction=                           0.171349 (Hartree/Particle)
 Thermal correction to Energy=                    0.171349
 Thermal correction to Enthalpy=                  0.171349
 Thermal correction to Gibbs Free Energy=         0.171349
 Sum of electronic and zero-point Energies=           -875.503041
 Sum of electronic and thermal Energies=              -875.503041
 Sum of electronic and thermal Enthalpies=            -875.503041
 Sum of electronic and thermal Free Energies=         -875.503041

                     E (Thermal)             CV                S
                      KCal/Mol        Cal/Mol-Kelvin    Cal/Mol-Kelvin
 Total                  107.523              5.962            -28.126
 Electronic               0.000              0.000              0.000
 Translational            0.000              2.981            -21.412
 Rotational               0.000              2.981             -6.714
 Vibrational            107.523              0.000              0.000

 Optimization completed.
    -- Stationary point found.
 Normal termination of Gaussian 16 at Mon Oct 14 09:11:28 2019.
