 Gaussian 16, Revision A.03,
 Gaussian 16:  ES64L-G16RevA.03 25-Dec-2016

 -------------------------------------------------------------------
 #p opt freq m062x/6-311++g(d,p) geom=connectivity temperature=0.001
 -------------------------------------------------------------------

 --------------------
 methionine_sulfoxide
 --------------------
 Symbolic Z-matrix:
 Charge =  1 Multiplicity = 1

 SCF Done:  E(RM062X) =  -875.962814625     A.U. after   16 cycles
 SCF Done:  E(RM062X) =  -875.994413299     A.U. after   15 cycles
 SCF Done:  E(RM062X) =  -876.006314625     A.U. after   14 cycles
 SCF Done:  E(RM062X) =  -876.008081595     A.U. after   14 cycles
 SCF Done:  E(RM062X) =  -876.009047372     A.U. after   14 cycles
 SCF Done:  E(RM062X) =  -876.010407871     A.U. after   13 cycles
 SCF Done:  E(RM062X) =  -876.011702389     A.U. after   13 cycles
 SCF Done:  E(RM062X) =  -876.012255482     A.U. after   16 cycles
 SCF Done:  E(RM062X) =  -876.012417196     A.U. after   12 cycles
 SCF Done:  E(RM062X) =  -876.012603306     A.U. after   13 cycles
 SCF Done:  E(RM062X) =  -876.012802846     A.U. after   13 cycles
 SCF Done:  E(RM062X) =  -876.012985155     A.U. after   13 cycles
 SCF Done:  E(RM062X) =  -876.013023410     A.U. after   13 cycles
 SCF Done:  E(RM062X) =  -876.013100749     A.U. after   13 cycles
 SCF Done:  E(RM062X) =  -876.013109035     A.U. after   12 cycles
 SCF Done:  E(RM062X) =  -876.013111216     A.U. after   12 cycles
 SCF Done:  E(RM062X) =  -876.013112128     A.U. after   11 cycles
 SCF Done:  E(RM062X) =  -876.013112188     A.U. after    9 cycles
 SCF Done:  E(RM062X) =  -876.013112238     A.U. after    9 cycles
 Optimization completed.
    -- Stationary point found.
 Normal termination of Gaussian 16 at Mon Oct 14 09:10:54 2019.

 ----------------------------------------------------------------------
 #P Geom=AllCheck Guess=TCheck SCRF=Check GenChk RM062X/6-311++G(d,p) F
 req
 ----------------------------------------------------------------------

 Structure from the checkpoint file:  "04_p.chk"
 --------------------
 methionine_sulfoxide
 --------------------
 Charge =  1 Multiplicity = 1

                         Standard orientation:
 ---------------------------------------------------------------------
 Center     Atomic      Atomic             Coordinates (Angstroms)
 Number     Number       Type             X           Y           Z
 ---------------------------------------------------------------------
      1          6           0        2.790756   -1.521391   -0.454734
      2         16           0        2.571603    0.003212    0.496639
      3          6           0        0.992983    0.546076   -0.294868
      4          8           0        3.576387    0.983258   -0.019001
      5          6           0       -0.229699   -0.219643    0.190058
      6          6           0       -1.525625    0.259378   -0.457403
      7          6           0       -2.728677   -0.567192    0.000537
      8          8           0       -3.788358    0.216910    0.251363
      9          8           0       -2.691300   -1.748655    0.092048
     10          7           0       -1.772785    1.724123   -0.160237
     11          1           0        3.751202   -1.931848   -0.144733
     12          1           0        2.001001   -2.236985   -0.222573
     13          1           0        2.824744   -1.272490   -1.515847
     14          1           0        1.140712    0.481401   -1.376944
     15          1           0        0.979977    1.602516   -0.007833
     16          1           0       -0.322055   -0.159468    1.280844
     17          1           0       -0.157218   -1.281648   -0.055129
     18          1           0       -1.467860    0.182287   -1.547028
     19          1           0       -4.551653   -0.325104    0.509554
     20          1           0       -2.704852    2.009087   -0.482254
     21          1           0       -1.737847    1.903055    0.849713
     22          1           0       -1.064554    2.313479   -0.609159
 ---------------------------------------------------------------------

 SCF Done:  E(RM062X) =  -876.013112238     A.U. after    1 cycles

 The electronic state is 1-A.
 Alpha  occ. eigenvalues --  -90.12295 -19.86342 -19.80548 -19.69580 -15.08234
 Alpha  occ. eigenvalues --  -10.87260 -10.82059 -10.74015 -10.72354 -10.68163
 Alpha  occ. eigenvalues --   -8.47926  -6.39983  -6.39915  -6.39545  -1.43383
 Alpha  occ. eigenvalues --   -1.34332  -1.32510  -1.25359  -1.10412  -1.03219
 Alpha  occ. eigenvalues --   -0.97736  -0.92179  -0.89862  -0.86590  -0.85826
 Alpha  occ. eigenvalues --   -0.81638  -0.80199  -0.76005  -0.75445  -0.72305
 Alpha  occ. eigenvalues --   -0.69649  -0.68169  -0.67154  -0.64613  -0.63832
 Alpha  occ. eigenvalues --   -0.62268  -0.60809  -0.58881  -0.58610  -0.57549
 Alpha  occ. eigenvalues --   -0.54931  -0.54586  -0.45466  -0.41435
 Alpha virt. eigenvalues --   -0.17986  -0.14429  -0.13485  -0.13072  -0.11631
 Alpha virt. eigenvalues --   -0.10427  -0.09484  -0.08911  -0.08374  -0.07565
 Alpha virt. eigenvalues --   -0.07104  -0.06356  -0.05608  -0.05413  -0.04525

 Mulliken charges:
               1
     1  C   -0.731014
     2  S    0.894528
     3  C   -0.746309
     4  O   -0.413641
     5  C   -0.463690
     6  C   -0.191878
     7  C   -0.085840
     8  O   -0.232641
     9  O   -0.188630
    10  N   -0.267336
    11  H    0.256314
    12  H    0.137269
    13  H    0.222116
    14  H    0.281342
    15  H    0.218239
    16  H    0.227318
    17  H    0.239869
    18  H    0.360384
    19  H    0.359860
    20  H    0.371145
    21  H    0.388734
    22  H    0.363859
 Sum of Mulliken charges =   1.00000

 Dipole moment (field-independent basis, Debye):
    X=            -10.4225    Y=              3.7510    Z=             -0.8881  Tot=             11.1125
 Quadrupole moment (field-independent basis, Debye-Ang):
   XX=            -48.1519   YY=            -54.5024   ZZ=            -61.3822
   XY=            -24.9158   XZ=             -0.7488   YZ=             -0.2617

  Exact polarizability: 116.639  -1.799  95.513  -1.378   0.140  71.372
 Approx polarizability: 119.903   1.581 122.656  -0.739  -0.678  93.633

                      1                      2                      3
                      A                      A                      A
 Frequencies --     30.6283                36.6884                58.3256
 Red. masses --      5.2259                 4.8830                 3.4306
 Frc consts  --      0.0029                 0.0039                 0.0069
 IR Inten    --     10.9604                11.1758                 4.9157

                      4                      5                      6
                      A                      A                      A
 Frequencies --     85.6315               111.9057               193.1696
 Red. masses --      5.1672                 2.1380                 1.1307
 Frc consts  --      0.0223                 0.0158                 0.0249
 IR Inten    --     13.8109                 0.9397                 0.2082

                      7                      8                      9
                      A                      A                      A
 Frequencies --    203.8342               211.3224               222.3262
 Red. masses --      1.8470                 3.3034                 2.1599
 Frc consts  --      0.0452                 0.0869                 0.0629
 IR Inten    --      0.1087                 3.7883                 1.7250

                     10                     11                     12
                      A                      A                      A
 Frequencies --    312.5682               323.5254               343.2366
 Red. masses --      3.1454                 3.5598                 3.1687
 Frc consts  --      0.1811                 0.2195                 0.2199
 IR Inten    --      0.6594                 7.4763                12.4423

                     13                     14                     15
                      A                      A                      A
 Frequencies --    396.6188               406.0473               510.7788
 Red. masses --      2.4462                 4.2423                 5.3579
 Frc consts  --      0.2267                 0.4121                 0.8236
 IR Inten    --     22.3061                 8.9488                15.6536

                     16                     17                     18
                      A                      A                      A
 Frequencies --    569.2167               632.9190               683.6355
 Red. masses --      2.6930                 1.4141                 3.5940
 Frc consts  --      0.5141                 0.3338                 0.9896
 IR Inten    --     22.2193               109.2312                 4.9883

                     19                     20                     21
                      A                      A                      A
 Frequencies --    729.8572               735.1074               768.5309
 Red. masses --      3.4477                 2.0076                 2.0960
 Frc consts  --      1.0821                 0.6392                 0.7294
 IR Inten    --     66.5358                46.4205                11.6711

                     22                     23                     24
                      A                      A                      A
 Frequencies --    846.0326               909.9863               934.8116
 Red. masses --      2.7128                 1.9732                 1.4576
 Frc consts  --      1.1440                 0.9627                 0.7505
 IR Inten    --     12.9242                13.8486                 3.2501

                     25                     26                     27
                      A                      A                      A
 Frequencies --    960.5776               991.5240              1058.2505
 Red. masses --      1.4348                 1.3219                 2.3029
 Frc consts  --      0.7800                 0.7657                 1.5195
 IR Inten    --      4.5169                33.7386                81.8574

                     28                     29                     30
                      A                      A                      A
 Frequencies --   1077.2706              1087.4819              1101.7451
 Red. masses --      3.3903                 1.7940                 6.6397
 Frc consts  --      2.3181                 1.2500                 4.7485
 IR Inten    --     10.3801                45.6122                83.7047

                     31                     32                     33
                      A                      A                      A
 Frequencies --   1122.6436              1195.1364              1228.4102
 Red. masses --      1.4684                 1.9500                 1.5209
 Frc consts  --      1.0904                 1.6410                 1.3522
 IR Inten    --     99.4471               179.2997                20.2095

                     34                     35                     36
                      A                      A                      A
 Frequencies --   1258.2989              1298.5782              1331.2428
 Red. masses --      1.2208                 1.3899                 1.1462
 Frc consts  --      1.1388                 1.3809                 1.1968
 IR Inten    --     24.0878                 8.0560                 0.8256

                     37                     38                     39
                      A                      A                      A
 Frequencies --   1353.3113              1358.9035              1397.1399
 Red. masses --      1.2208                 1.8115                 1.3723
 Frc consts  --      1.3174                 1.9709                 1.5782
 IR Inten    --     14.7771                53.3836                 4.7164

                     40                     41                     42
                      A                      A                      A
 Frequencies --   1413.0027              1441.8022              1466.0480
 Red. masses --      1.8773                 1.0483                 1.0983
 Frc consts  --      2.2084                 1.2839                 1.3908
 IR Inten    --     42.6234                13.6395                 3.7905

                     43                     44                     45
                      A                      A                      A
 Frequencies --   1473.9264              1487.9623              1523.7090
 Red. masses --      1.0798                 1.0951                 1.1793
 Frc consts  --      1.3821                 1.4285                 1.6132
 IR Inten    --     15.7814                24.5953               180.2805

                     46                     47                     48
                      A                      A                      A
 Frequencies --   1641.8759              1659.3957              1937.5218
 Red. masses --      1.0431                 1.0475                11.6704
 Frc consts  --      1.6568                 1.6995                25.8124
 IR Inten    --     58.3385                59.2761               289.5933

                     49                     50                     51
                      A                      A                      A
 Frequencies --   3055.8128              3062.0805              3072.6547
 Red. masses --      1.0611                 1.0657                 1.0300
 Frc consts  --      5.8382                 5.8875                 5.7297
 IR Inten    --      9.3017                 2.5644                 3.3365

                     52                     53                     54
                      A                      A                      A
 Frequencies --   3102.5166              3116.4384              3134.2770
 Red. masses --      1.0849                 1.1048                 1.1000
 Frc consts  --      6.1526                 6.3218                 6.3668
 IR Inten    --      1.2151                 2.6531                 0.4965

                     55                     56                     57
                      A                      A                      A
 Frequencies --   3179.7779              3182.2485              3407.5944
 Red. masses --      1.1063                 1.1066                 1.0306
 Frc consts  --      6.5903                 6.6026                 7.0508
 IR Inten    --      0.4910                 1.7715                63.5132

                     58                     59                     60
                      A                      A                      A
 Frequencies --   3484.2483              3498.4927              3783.3884
 Red. masses --      1.0933                 1.0943                 1.0656
 Frc consts  --      7.8200                 7.8915                 8.9868
 IR Inten    --    128.0890               131.4203               237.9124

 - Thermochemistry -
 -------------------
 Temperature     0.001 Kelvin.  Pressure   1.00000 Atm.
 Atom     1 has atomic number  6 and mass  12.00000

 Molecular mass:   166.05379 amu.
 Principal axes and moments of inertia in atomic units:
                           1         2         3
     Eigenvalues --   702.415793993.262804511.99327
           X            0.99968  -0.02462  -0.00642
           Y            0.02466   0.99968   0.00552
           Z            0.00628  -0.00567   0.99996
 This molecule is an asymmetric top.
 Rotational symmetry number  1.
 Warning -- assumption of classical behavior for rotation
           may cause significant error
 Rotational temperatures (Kelvin)      0.12331     0.02169     0.01920
 Rotational constants (GHZ):           2.56933     0.45195     0.39999
 Zero-point vibrational energy     485695.8 (Joules/Mol)
                                  116.08408 (Kcal/Mol)
 Vibrational temperatures:     44.07    52.79    83.92   123.20   161.01
          (Kelvin)            277.93   293.27   304.05   319.88   449.72
                              465.48   493.84   570.65   584.21   734.90
                              818.98   910.63   983.60  1050.10  1057.66
                             1105.74  1217.25  1309.27  1344.99  1382.06
                             1426.58  1522.59  1549.95  1564.64  1585.17
                             1615.23  1719.53  1767.41  1810.41  1868.36
                             1915.36  1947.11  1955.16  2010.17  2033.00
                             2074.43  2109.32  2120.65  2140.85  2192.28
                             2362.29  2387.50  2787.66  4396.63  4405.65
                             4420.86  4463.83  4483.86  4509.53  4574.99
                             4578.55  4902.77  5013.06  5033.55  5443.45

 Zero-point correction=                           0.184992 (Hartree/Particle)
 Thermal correction to Energy=                    0.184992
 Thermal correction to Enthalpy=                  0.184992
 Thermal correction to Gibbs Free Energy=         0.184992
 Sum of electronic and zero-point Energies=           -875.828120
 Sum of electronic and thermal Energies=              -875.828120
 Sum of electronic and thermal Enthalpies=            -875.828120
 Sum of electronic and thermal Free Energies=         -875.828120

                     E (Thermal)             CV                S
                      KCal/Mol        Cal/Mol-Kelvin    Cal/Mol-Kelvin
 Total                  116.084              5.962            -28.052
 Electronic               0.000              0.000              0.000
 Translational            0.000              2.981            -21.394
 Rotational               0.000              2.981             -6.659
 Vibrational            116.084              0.000              0.000

 Optimization completed.
    -- Stationary point found.
 Normal termination of Gaussian 16 at Mon Oct 14 09:13:39 2019.
