 Gaussian 16, Revision A.03,
 Gaussian 16:  ES64L-G16RevA.03 25-Dec-2016

 -------------------------------------------------------------------
 #p opt freq m062x/6-311++g(d,p) geom=connectivity temperature=0.001
 -------------------------------------------------------------------

 --------------------
 methionine_sulfoxide
 --------------------
 Symbolic Z-matrix:
 Charge =  1 Multiplicity = 1

 SCF Done:  E(RM062X) =  -875.994457446     A.U. after   14 cycles
 SCF Done:  E(RM062X) =  -876.021195293     A.U. after   13 cycles
 SCF Done:  E(RM062X) =  -876.030858935     A.U. after   13 cycles
 SCF Done:  E(RM062X) =  -876.033324283     A.U. after   13 cycles
 SCF Done:  E(RM062X) =  -876.034805861     A.U. after   13 cycles
 SCF Done:  E(RM062X) =  -876.035601330     A.U. after   12 cycles
 SCF Done:  E(RM062X) =  -876.035918097     A.U. after   13 cycles
 SCF Done:  E(RM062X) =  -876.036123704     A.U. after   12 cycles
 SCF Done:  E(RM062X) =  -876.036321091     A.U. after   12 cycles
 SCF Done:  E(RM062X) =  -876.036421899     A.U. after   12 cycles
 SCF Done:  E(RM062X) =  -876.038624707     A.U. after   14 cycles
 SCF Done:  E(RM062X) =  -876.038870254     A.U. after   13 cycles
 SCF Done:  E(RM062X) =  -876.038952593     A.U. after   12 cycles
 SCF Done:  E(RM062X) =  -876.039013550     A.U. after   13 cycles
 SCF Done:  E(RM062X) =  -876.039018935     A.U. after   12 cycles
 SCF Done:  E(RM062X) =  -876.039028217     A.U. after   11 cycles
 SCF Done:  E(RM062X) =  -876.039021017     A.U. after   12 cycles
 SCF Done:  E(RM062X) =  -876.039029821     A.U. after   11 cycles
 SCF Done:  E(RM062X) =  -876.039029900     A.U. after    8 cycles
 Optimization completed.
    -- Stationary point found.
 Normal termination of Gaussian 16 at Thu Jan  2 18:54:33 2020.

 ----------------------------------------------------------------------
 #P Geom=AllCheck Guess=TCheck SCRF=Check GenChk RM062X/6-311++G(d,p) F
 req
 ----------------------------------------------------------------------

 Structure from the checkpoint file:  "04_b_p.chk"
 --------------------
 methionine_sulfoxide
 --------------------
 Charge =  1 Multiplicity = 1

                         Standard orientation:
 ---------------------------------------------------------------------
 Center     Atomic      Atomic             Coordinates (Angstroms)
 Number     Number       Type             X           Y           Z
 ---------------------------------------------------------------------
      1          6           0        2.650684   -1.614375   -0.216759
      2         16           0        2.410848    0.022881    0.467880
      3          6           0        0.918501    0.584383   -0.370695
      4          8           0        3.544742    0.829508   -0.372831
      5          6           0       -0.274566   -0.272441    0.043283
      6          6           0       -1.569226    0.462018   -0.327124
      7          6           0       -2.752507   -0.468696   -0.055168
      8          8           0       -3.912022    0.163522   -0.247335
      9          8           0       -2.650031   -1.612171    0.288122
     10          7           0       -1.630877    1.742718    0.359854
     11          1           0        3.631090   -1.957843    0.110183
     12          1           0        1.871796   -2.257341    0.195491
     13          1           0        2.592128   -1.552750   -1.303312
     14          1           0        1.135596    0.550471   -1.441098
     15          1           0        0.776479    1.617806   -0.043328
     16          1           0       -0.280807   -0.444988    1.125741
     17          1           0       -0.258928   -1.248443   -0.442854
     18          1           0       -1.575978    0.663164   -1.404286
     19          1           0       -4.639310   -0.452584   -0.075101
     20          1           0       -2.327910    2.348078   -0.059914
     21          1           0       -1.892748    1.624888    1.334546
     22          1           0        4.112344    1.352222    0.214003
 ---------------------------------------------------------------------

 SCF Done:  E(RM062X) =  -876.039029900     A.U. after    1 cycles

 The electronic state is 1-A.
 Alpha  occ. eigenvalues --  -90.21614 -19.87211 -19.79119 -19.74239 -14.86988
 Alpha  occ. eigenvalues --  -10.80109 -10.75997 -10.75687 -10.72972 -10.71161
 Alpha  occ. eigenvalues --   -8.57510  -6.49671  -6.49343  -6.49059  -1.39999
 Alpha  occ. eigenvalues --   -1.36511  -1.27156  -1.15253  -1.13091  -1.03953
 Alpha  occ. eigenvalues --   -0.97607  -0.92677  -0.87116  -0.82349  -0.80484
 Alpha  occ. eigenvalues --   -0.75047  -0.74349  -0.72108  -0.71911  -0.70075
 Alpha  occ. eigenvalues --   -0.69264  -0.68443  -0.66344  -0.65825  -0.62935
 Alpha  occ. eigenvalues --   -0.62700  -0.61513  -0.59092  -0.57489  -0.56990
 Alpha  occ. eigenvalues --   -0.56183  -0.52102  -0.50710  -0.44627
 Alpha virt. eigenvalues --   -0.18340  -0.13403  -0.13056  -0.11242  -0.10173
 Alpha virt. eigenvalues --   -0.09840  -0.09389  -0.08173  -0.08035  -0.07631
 Alpha virt. eigenvalues --   -0.06999  -0.06803  -0.06165  -0.05468  -0.04835

 Mulliken charges:
               1
     1  C   -0.712356
     2  S    0.826896
     3  C   -0.694403
     4  O   -0.238961
     5  C   -0.471076
     6  C   -0.413513
     7  C    0.022003
     8  O   -0.188118
     9  O   -0.238267
    10  N   -0.325569
    11  H    0.274442
    12  H    0.230957
    13  H    0.264352
    14  H    0.329362
    15  H    0.336911
    16  H    0.244632
    17  H    0.221486
    18  H    0.276471
    19  H    0.332452
    20  H    0.299438
    21  H    0.269902
    22  H    0.352958
 Sum of Mulliken charges =   1.00000

 Dipole moment (field-independent basis, Debye):
    X=              6.6837    Y=              0.6500    Z=              0.5571  Tot=              6.7383
 Quadrupole moment (field-independent basis, Debye-Ang):
   XX=            -17.7596   YY=            -60.7400   ZZ=            -62.1298
   XY=             -4.9439   XZ=              4.6601   YZ=              3.1512

  Exact polarizability: 114.688  -1.717  92.979   0.625  -1.379  69.841
 Approx polarizability: 114.865  -1.285 116.526   1.204  -4.134  94.288

                      1                      2                      3
                      A                      A                      A
 Frequencies --     26.0661                44.0030                55.4921
 Red. masses --      8.2802                 3.9005                 3.5074
 Frc consts  --      0.0033                 0.0044                 0.0064
 IR Inten    --      2.2641                 0.2564                 0.5122

                      4                      5                      6
                      A                      A                      A
 Frequencies --     77.2568               146.1969               193.6744
 Red. masses --      4.6708                 2.4707                 5.2165
 Frc consts  --      0.0164                 0.0311                 0.1153
 IR Inten    --      2.9566                 2.8061                29.4097

                      7                      8                      9
                      A                      A                      A
 Frequencies --    203.3594               215.1419               250.3325
 Red. masses --      1.7421                 1.6675                 2.0163
 Frc consts  --      0.0424                 0.0455                 0.0744
 IR Inten    --      1.2991                 0.3694                94.8450

                     10                     11                     12
                      A                      A                      A
 Frequencies --    296.9893               304.2188               321.8679
 Red. masses --      1.4077                 2.2795                 2.8023
 Frc consts  --      0.0732                 0.1243                 0.1710
 IR Inten    --     15.6793                21.7746                 0.7289

                     13                     14                     15
                      A                      A                      A
 Frequencies --    345.4247               376.9927               413.9849
 Red. masses --      1.8139                 3.1368                 2.7582
 Frc consts  --      0.1275                 0.2627                 0.2785
 IR Inten    --     20.3155                 4.3668                14.2654

                     16                     17                     18
                      A                      A                      A
 Frequencies --    535.9016               590.3970               637.7768
 Red. masses --      3.7352                 1.9946                 1.7641
 Frc consts  --      0.6320                 0.4096                 0.4228
 IR Inten    --     25.3273                51.6914                90.5598

                     19                     20                     21
                      A                      A                      A
 Frequencies --    697.4646               747.9172               776.1544
 Red. masses --      4.6838                 2.8058                 4.9577
 Frc consts  --      1.3424                 0.9247                 1.7597
 IR Inten    --      1.7121                30.2074                 9.7699

                     22                     23                     24
                      A                      A                      A
 Frequencies --    781.2796               841.9373               870.2530
 Red. masses --      1.4594                13.0537                 1.7966
 Frc consts  --      0.5249                 5.4518                 0.8017
 IR Inten    --     11.7627                83.6999               121.5921

                     25                     26                     27
                      A                      A                      A
 Frequencies --    941.6867               961.7744              1000.5325
 Red. masses --      1.8978                 1.7707                 1.3301
 Frc consts  --      0.9915                 0.9650                 0.7845
 IR Inten    --     26.6014                 8.7767                 2.2708

                     28                     29                     30
                      A                      A                      A
 Frequencies --   1009.8428              1033.8909              1076.3613
 Red. masses --      1.8204                 1.9038                 2.1739
 Frc consts  --      1.0938                 1.1990                 1.4839
 IR Inten    --     26.6413                 3.4409                 0.7272

                     31                     32                     33
                      A                      A                      A
 Frequencies --   1139.2820              1170.9628              1190.1209
 Red. masses --      1.1038                 2.4782                 1.1885
 Frc consts  --      0.8441                 2.0020                 0.9918
 IR Inten    --     34.4003               135.3986                84.6626

                     34                     35                     36
                      A                      A                      A
 Frequencies --   1206.1246              1245.3519              1257.0022
 Red. masses --      2.0341                 1.3436                 1.3019
 Frc consts  --      1.7434                 1.2277                 1.2120
 IR Inten    --    120.7491                 8.5703                22.4092

                     37                     38                     39
                      A                      A                      A
 Frequencies --   1307.6923              1335.0666              1370.6448
 Red. masses --      1.3356                 1.1881                 1.2309
 Frc consts  --      1.3457                 1.2477                 1.3624
 IR Inten    --      8.9108                 2.8342                20.5263

                     40                     41                     42
                      A                      A                      A
 Frequencies --   1373.5403              1408.5942              1422.7994
 Red. masses --      1.5529                 1.4479                 2.1954
 Frc consts  --      1.7261                 1.6926                 2.6184
 IR Inten    --     49.0112                 3.1610                64.0557

                     43                     44                     45
                      A                      A                      A
 Frequencies --   1445.5125              1455.2852              1475.0565
 Red. masses --      1.0468                 1.0507                 1.0738
 Frc consts  --      1.2887                 1.3110                 1.3766
 IR Inten    --      9.6217                16.1203                25.0593

                     46                     47                     48
                      A                      A                      A
 Frequencies --   1488.6200              1671.3863              1877.6381
 Red. masses --      1.0912                 1.0984                11.1155
 Frc consts  --      1.4247                 1.8079                23.0888
 IR Inten    --      7.4340                43.8402               306.1833

                     49                     50                     51
                      A                      A                      A
 Frequencies --   3057.4335              3072.9415              3077.7764
 Red. masses --      1.0721                 1.0780                 1.0321
 Frc consts  --      5.9047                 5.9975                 5.7602
 IR Inten    --      1.6148                 6.5376                 2.5530

                     52                     53                     54
                      A                      A                      A
 Frequencies --   3079.8092              3139.5046              3154.3587
 Red. masses --      1.0544                 1.1015                 1.1065
 Frc consts  --      5.8924                 6.3965                 6.4869
 IR Inten    --     20.5359                 7.7878                 5.2299

                     55                     56                     57
                      A                      A                      A
 Frequencies --   3186.0079              3195.9485              3537.1923
 Red. masses --      1.1073                 1.1095                 1.0523
 Frc consts  --      6.6225                 6.6769                 7.7573
 IR Inten    --      8.0334                 7.6664                20.3390

                     58                     59                     60
                      A                      A                      A
 Frequencies --   3621.1073              3804.1035              3812.2677
 Red. masses --      1.0923                 1.0682                 1.0651
 Frc consts  --      8.4388                 9.1077                 9.1202
 IR Inten    --     30.3319               326.8031               149.6548

 - Thermochemistry -
 -------------------
 Temperature     0.001 Kelvin.  Pressure   1.00000 Atm.
 Atom     1 has atomic number  6 and mass  12.00000

 Molecular mass:   166.05379 amu.
 Principal axes and moments of inertia in atomic units:
                           1         2         3
     Eigenvalues --   677.293273925.051124416.58254
           X            0.99986  -0.01621  -0.00346
           Y            0.01626   0.99976   0.01453
           Z            0.00322  -0.01458   0.99989
 This molecule is an asymmetric top.
 Rotational symmetry number  1.
 Warning -- assumption of classical behavior for rotation
           may cause significant error
 Rotational temperatures (Kelvin)      0.12788     0.02207     0.01961
 Rotational constants (GHZ):           2.66464     0.45980     0.40863
 Zero-point vibrational energy     480619.5 (Joules/Mol)
                                  114.87081 (Kcal/Mol)
 Vibrational temperatures:     37.50    63.31    79.84   111.16   210.34
          (Kelvin)            278.65   292.59   309.54   360.17   427.30
                              437.70   463.10   496.99   542.41   595.63
                              771.04   849.45   917.62  1003.50  1076.09
                             1116.71  1124.09  1211.36  1252.10  1354.88
                             1383.78  1439.54  1452.94  1487.54  1548.64
                             1639.17  1684.75  1712.32  1735.34  1791.78
                             1808.55  1881.48  1920.86  1972.05  1976.22
                             2026.65  2047.09  2079.77  2093.83  2122.28
                             2141.79  2404.75  2701.50  4398.96  4421.28
                             4428.23  4431.16  4517.05  4538.42  4583.95
                             4598.26  5089.23  5209.97  5473.26  5485.00

 Zero-point correction=                           0.183058 (Hartree/Particle)
 Thermal correction to Energy=                    0.183058
 Thermal correction to Enthalpy=                  0.183058
 Thermal correction to Gibbs Free Energy=         0.183058
 Sum of electronic and zero-point Energies=           -875.855972
 Sum of electronic and thermal Energies=              -875.855972
 Sum of electronic and thermal Enthalpies=            -875.855972
 Sum of electronic and thermal Free Energies=         -875.855972

                     E (Thermal)             CV                S
                      KCal/Mol        Cal/Mol-Kelvin    Cal/Mol-Kelvin
 Total                  114.871              5.962            -28.127
 Electronic               0.000              0.000              0.000
 Translational            0.000              2.981            -21.394
 Rotational               0.000              2.981             -6.733
 Vibrational            114.871              0.000              0.000

 Optimization completed.
    -- Stationary point found.
 Normal termination of Gaussian 16 at Thu Jan  2 18:57:17 2020.
