 Gaussian 16, Revision A.03,
 Gaussian 16:  ES64L-G16RevA.03 25-Dec-2016

 -------------------------------------------------------------------
 #p opt freq m062x/6-311++g(d,p) geom=connectivity temperature=0.001
 -------------------------------------------------------------------

 ----------------
 Benzene Sulfonyl
 ----------------
 Symbolic Z-matrix:
 Charge =  0 Multiplicity = 1

 SCF Done:  E(RM062X) =  -855.929447177     A.U. after   16 cycles
 SCF Done:  E(RM062X) =  -855.965489078     A.U. after   15 cycles
 SCF Done:  E(RM062X) =  -855.978057555     A.U. after   15 cycles
 SCF Done:  E(RM062X) =  -855.980143331     A.U. after   16 cycles
 SCF Done:  E(RM062X) =  -855.981035604     A.U. after   16 cycles
 SCF Done:  E(RM062X) =  -855.982112892     A.U. after   17 cycles
 SCF Done:  E(RM062X) =  -855.982529198     A.U. after   17 cycles
 SCF Done:  E(RM062X) =  -855.982787462     A.U. after   14 cycles
 SCF Done:  E(RM062X) =  -855.982815557     A.U. after   13 cycles
 SCF Done:  E(RM062X) =  -855.982824919     A.U. after   14 cycles
 SCF Done:  E(RM062X) =  -855.983226156     A.U. after   13 cycles
 SCF Done:  E(RM062X) =  -855.983302883     A.U. after   16 cycles
 SCF Done:  E(RM062X) =  -855.983260995     A.U. after   14 cycles
 SCF Done:  E(RM062X) =  -855.983347012     A.U. after   15 cycles
 SCF Done:  E(RM062X) =  -855.983402503     A.U. after   14 cycles
 SCF Done:  E(RM062X) =  -855.983403639     A.U. after   12 cycles
 SCF Done:  E(RM062X) =  -855.983404307     A.U. after   12 cycles
 SCF Done:  E(RM062X) =  -855.983404376     A.U. after   11 cycles
 SCF Done:  E(RM062X) =  -855.983404454     A.U. after   11 cycles
 Optimization completed.
    -- Stationary point found.
 Normal termination of Gaussian 16 at Mon Oct 14 11:56:41 2019.

 ----------------------------------------------------------------------
 #P Geom=AllCheck Guess=TCheck SCRF=Check GenChk RM062X/6-311++G(d,p) F
 req
 ----------------------------------------------------------------------

 Structure from the checkpoint file:  "05.chk"
 ----------------
 Benzene Sulfonyl
 ----------------
 Charge =  0 Multiplicity = 1

                         Standard orientation:
 ---------------------------------------------------------------------
 Center     Atomic      Atomic             Coordinates (Angstroms)
 Number     Number       Type             X           Y           Z
 ---------------------------------------------------------------------
      1          6           0       -0.973896    1.216790    0.075413
      2          6           0       -2.362367    1.213502    0.005800
      3          6           0       -3.053925    0.007590   -0.058641
      4          6           0       -2.367007   -1.203603   -0.047691
      5          6           0       -0.979767   -1.217013    0.024866
      6          6           0       -0.307558   -0.002048    0.079695
      7         16           0        1.466257   -0.012026    0.135681
      8          8           0        1.925927    1.278736    0.595183
      9          8           0        1.862921   -0.119697   -1.432107
     10          8           0        1.904411   -1.244508    0.727221
     11          1           0       -0.412267    2.140460    0.146537
     12          1           0       -2.902804    2.151910    0.009538
     13          1           0       -4.136059    0.010944   -0.111386
     14          1           0       -2.911840   -2.138558   -0.088505
     15          1           0       -0.421610   -2.145047    0.050562
     16          1           0        2.045534    0.765140   -1.776667
 ---------------------------------------------------------------------

 SCF Done:  E(RM062X) =  -855.983404454     A.U. after    1 cycles

 The electronic state is 1-A.
 Alpha  occ. eigenvalues --  -90.14584 -19.69091 -19.64034 -19.63830 -10.60149
 Alpha  occ. eigenvalues --  -10.58319 -10.58199 -10.57766 -10.57590 -10.57530
 Alpha  occ. eigenvalues --   -8.48566  -6.40874  -6.40746  -6.40614  -1.29809
 Alpha  occ. eigenvalues --   -1.18073  -1.15962  -1.00288  -0.89835  -0.88078
 Alpha  occ. eigenvalues --   -0.79136  -0.72712  -0.71642  -0.66252  -0.62713
 Alpha  occ. eigenvalues --   -0.59019  -0.58406  -0.55721  -0.54623  -0.52789
 Alpha  occ. eigenvalues --   -0.52514  -0.48723  -0.47133  -0.45645  -0.43994
 Alpha  occ. eigenvalues --   -0.43691  -0.41983  -0.40347  -0.39820  -0.34468
 Alpha  occ. eigenvalues --   -0.34160
 Alpha virt. eigenvalues --   -0.02955  -0.01406  -0.01120  -0.00149   0.00658
 Alpha virt. eigenvalues --    0.02025   0.03356   0.04403   0.05646   0.05734
 Alpha virt. eigenvalues --    0.07095   0.07613   0.08278   0.08815   0.09359

 Mulliken charges:
               1
     1  C    0.014318
     2  C   -0.285580
     3  C   -0.114620
     4  C   -0.299997
     5  C   -0.163861
     6  C   -0.358228
     7  S    0.277827
     8  O   -0.231359
     9  O   -0.145875
    10  O   -0.160563
    11  H    0.253822
    12  H    0.219083
    13  H    0.203746
    14  H    0.218713
    15  H    0.259363
    16  H    0.313211
 Sum of Mulliken charges =  -0.00000

 Dipole moment (field-independent basis, Debye):
    X=             -4.4795    Y=              1.2927    Z=             -2.2259  Tot=              5.1664
 Quadrupole moment (field-independent basis, Debye-Ang):
   XX=            -62.5695   YY=            -62.4627   ZZ=            -67.6992
   XY=              3.1252   XZ=             -5.2880   YZ=             -2.8470

  Exact polarizability: 117.219   0.530  98.232   1.226  -0.476  61.744
 Approx polarizability: 135.135   0.242 140.123   3.251  -0.370  80.749

                      1                      2                      3
                      A                      A                      A
 Frequencies --     42.0630               116.2645               187.5913
 Red. masses --      5.1560                 5.3816                 4.7314
 Frc consts  --      0.0054                 0.0429                 0.0981
 IR Inten    --      1.3586                 1.9354                12.4242

                      4                      5                      6
                      A                      A                      A
 Frequencies --    227.0859               282.6727               318.0922
 Red. masses --      1.4060                 5.6563                 8.8787
 Frc consts  --      0.0427                 0.2663                 0.5293
 IR Inten    --     84.6230                 0.2771                 2.8290

                      7                      8                      9
                      A                      A                      A
 Frequencies --    374.6273               409.5558               453.0377
 Red. masses --      4.0608                 2.9008                 5.7234
 Frc consts  --      0.3358                 0.2867                 0.6921
 IR Inten    --     17.0992                 0.1207                 9.4470

                     10                     11                     12
                      A                      A                      A
 Frequencies --    475.7648               545.7742               590.3310
 Red. masses --      5.7386                 5.4668                12.7663
 Frc consts  --      0.7653                 0.9594                 2.6212
 IR Inten    --     14.0353                38.0794               138.5982

                     13                     14                     15
                      A                      A                      A
 Frequencies --    624.9333               718.2365               728.6293
 Red. masses --      6.4228                 1.8037                 7.5473
 Frc consts  --      1.4779                 0.5482                 2.3608
 IR Inten    --      0.0287                44.8896                25.1797

                     16                     17                     18
                      A                      A                      A
 Frequencies --    779.1380               827.4293               871.0590
 Red. masses --      1.8213                14.2070                 1.2438
 Frc consts  --      0.6514                 5.7308                 0.5560
 IR Inten    --     62.3914               269.2704                 0.2002

                     19                     20                     21
                      A                      A                      A
 Frequencies --    958.6120              1007.7520              1015.9920
 Red. masses --      1.3515                 1.3771                 6.2103
 Frc consts  --      0.7317                 0.8240                 3.7770
 IR Inten    --      0.7752                 0.0802                 2.4769

                     22                     23                     24
                      A                      A                      A
 Frequencies --   1025.0020              1055.7506              1111.3364
 Red. masses --      1.3130                 2.5585                 1.4740
 Frc consts  --      0.8128                 1.6802                 1.0726
 IR Inten    --      0.0496                 2.2549                 8.7879

                     25                     26                     27
                      A                      A                      A
 Frequencies --   1119.3993              1126.3950              1183.5498
 Red. masses --      3.0989                 1.2544                 1.1540
 Frc consts  --      2.2879                 0.9377                 0.9524
 IR Inten    --     12.0259                83.3201                 1.1780

                     28                     29                     30
                      A                      A                      A
 Frequencies --   1195.0486              1205.2884              1328.7177
 Red. masses --      3.9445                 1.3499                 3.1697
 Frc consts  --      3.3190                 1.1554                 3.2971
 IR Inten    --    233.2411                27.8427                 3.2251

                     31                     32                     33
                      A                      A                      A
 Frequencies --   1343.4409              1409.1934              1491.6357
 Red. masses --      1.6180                11.7195                 2.3079
 Frc consts  --      1.7206                13.7120                 3.0255
 IR Inten    --     15.7408               215.7676                24.7138

                     34                     35                     36
                      A                      A                      A
 Frequencies --   1521.6774              1661.3964              1664.0875
 Red. masses --      2.1893                 5.8119                 6.3743
 Frc consts  --      2.9867                 9.4518                10.4000
 IR Inten    --      3.5815                 1.4930                 0.5233

                     37                     38                     39
                      A                      A                      A
 Frequencies --   3209.5205              3219.0699              3224.0029
 Red. masses --      1.0868                 1.0893                 1.0927
 Frc consts  --      6.5963                 6.6505                 6.6920
 IR Inten    --      0.8922                 4.8148                 0.3878

                     40                     41                     42
                      A                      A                      A
 Frequencies --   3231.2445              3235.6367              3839.7607
 Red. masses --      1.0960                 1.0992                 1.0664
 Frc consts  --      6.7420                 6.7804                 9.2632
 IR Inten    --      0.1181                 7.6807               153.5200

 - Thermochemistry -
 -------------------
 Temperature     0.001 Kelvin.  Pressure   1.00000 Atm.
 Atom     1 has atomic number  6 and mass  12.00000

 Molecular mass:   158.00377 amu.
 Principal axes and moments of inertia in atomic units:
                           1         2         3
     Eigenvalues --   684.921652146.419842467.67577
           X            0.99998   0.00351  -0.00584
           Y           -0.00357   0.99994  -0.01062
           Z            0.00581   0.01064   0.99993
 This molecule is an asymmetric top.
 Rotational symmetry number  1.
 Warning -- assumption of classical behavior for rotation
           may cause significant error
 Rotational temperatures (Kelvin)      0.12646     0.04035     0.03510
 Rotational constants (GHZ):           2.63496     0.84081     0.73135
 Zero-point vibrational energy     304783.3 (Joules/Mol)
                                   72.84497 (Kcal/Mol)
 Vibrational temperatures:     60.52   167.28   269.90   326.73   406.70
          (Kelvin)            457.66   539.01   589.26   651.82   684.52
                              785.25   849.35   899.14  1033.38  1048.34
                             1121.01  1190.49  1253.26  1379.23  1449.93
                             1461.79  1474.75  1518.99  1598.97  1610.57
                             1620.63  1702.86  1719.41  1734.14  1911.73
                             1932.91  2027.52  2146.13  2189.35  2390.38
                             2394.25  4617.78  4631.52  4638.62  4649.04
                             4655.36  5524.56

 Zero-point correction=                           0.116086 (Hartree/Particle)
 Thermal correction to Energy=                    0.116086
 Thermal correction to Enthalpy=                  0.116086
 Thermal correction to Gibbs Free Energy=         0.116086
 Sum of electronic and zero-point Energies=           -855.867319
 Sum of electronic and thermal Energies=              -855.867319
 Sum of electronic and thermal Enthalpies=            -855.867319
 Sum of electronic and thermal Free Energies=         -855.867319

                     E (Thermal)             CV                S
                      KCal/Mol        Cal/Mol-Kelvin    Cal/Mol-Kelvin
 Total                   72.845              5.962            -29.442
 Electronic               0.000              0.000              0.000
 Translational            0.000              2.981            -21.542
 Rotational               0.000              2.981             -7.900
 Vibrational             72.845              0.000              0.000

 Optimization completed.
    -- Stationary point found.
 Normal termination of Gaussian 16 at Mon Oct 14 11:58:19 2019.
