 Gaussian 16, Revision A.03,
 Gaussian 16:  ES64L-G16RevA.03 25-Dec-2016

 -------------------------------------------------------------------
 #P opt freq m062x/6-311++g(d,p) geom=connectivity temperature=0.001
 -------------------------------------------------------------------

 ---------------------
 Benzene Sulfonyl Plus
 ---------------------
 Symbolic Z-matrix:
 Charge =  1 Multiplicity = 1

 SCF Done:  E(RM062X) =  -856.228820321     A.U. after   16 cycles
 SCF Done:  E(RM062X) =  -856.268915414     A.U. after   15 cycles
 SCF Done:  E(RM062X) =  -856.287513170     A.U. after   15 cycles
 SCF Done:  E(RM062X) =  -856.289171497     A.U. after   14 cycles
 SCF Done:  E(RM062X) =  -856.289685062     A.U. after   14 cycles
 SCF Done:  E(RM062X) =  -856.289901439     A.U. after   15 cycles
 SCF Done:  E(RM062X) =  -856.290127394     A.U. after   15 cycles
 SCF Done:  E(RM062X) =  -856.290349807     A.U. after   16 cycles
 SCF Done:  E(RM062X) =  -856.290550588     A.U. after   15 cycles
 SCF Done:  E(RM062X) =  -856.290619192     A.U. after   13 cycles
 SCF Done:  E(RM062X) =  -856.290868330     A.U. after   13 cycles
 SCF Done:  E(RM062X) =  -856.290889269     A.U. after   12 cycles
 SCF Done:  E(RM062X) =  -856.290894781     A.U. after   12 cycles
 SCF Done:  E(RM062X) =  -856.290896438     A.U. after   11 cycles
 SCF Done:  E(RM062X) =  -856.290899924     A.U. after   11 cycles
 SCF Done:  E(RM062X) =  -856.290901950     A.U. after   11 cycles
 SCF Done:  E(RM062X) =  -856.290904096     A.U. after   10 cycles
 SCF Done:  E(RM062X) =  -856.290906192     A.U. after   10 cycles
 SCF Done:  E(RM062X) =  -856.290907244     A.U. after   10 cycles
 Optimization completed.
    -- Stationary point found.
 Normal termination of Gaussian 16 at Mon Oct 14 09:09:24 2019.

 ----------------------------------------------------------------------
 #P Geom=AllCheck Guess=TCheck SCRF=Check GenChk RM062X/6-311++G(d,p) F
 req
 ----------------------------------------------------------------------

 Structure from the checkpoint file:  "05_p.chk"
 ---------------------
 Benzene Sulfonyl Plus
 ---------------------
 Charge =  1 Multiplicity = 1

                         Standard orientation:
 ---------------------------------------------------------------------
 Center     Atomic      Atomic             Coordinates (Angstroms)
 Number     Number       Type             X           Y           Z
 ---------------------------------------------------------------------
      1          6           0       -0.979480    1.222575   -0.024669
      2          6           0       -2.364529    1.226079    0.016703
      3          6           0       -3.068739    0.021614    0.028772
      4          6           0       -2.405432   -1.201975   -0.001662
      5          6           0       -1.018414   -1.241638   -0.041163
      6          6           0       -0.344431   -0.021299   -0.046720
      7         16           0        1.389323   -0.121765   -0.048354
      8          8           0        1.934651    0.132766    1.406671
      9          8           0        1.797186    1.172439   -0.835942
     10          8           0        1.959012   -1.331234   -0.521468
     11          1           0       -0.417975    2.148282   -0.065948
     12          1           0       -2.895762    2.169163    0.025571
     13          1           0       -4.151600    0.040270    0.055591
     14          1           0       -2.964757   -2.128629   -0.003600
     15          1           0       -0.480423   -2.181808   -0.078916
     16          1           0        2.750785    1.229354   -1.036726
     17          1           0        1.489920    0.847700    1.896035
 ---------------------------------------------------------------------

 SCF Done:  E(RM062X) =  -856.290907244     A.U. after    1 cycles

 The electronic state is 1-A.
 Alpha  occ. eigenvalues --  -90.36839 -19.90597 -19.89954 -19.85289 -10.77953
 Alpha  occ. eigenvalues --  -10.74550 -10.74313 -10.72323 -10.72155 -10.71970
 Alpha  occ. eigenvalues --   -8.70938  -6.63200  -6.63128  -6.62908  -1.52060
 Alpha  occ. eigenvalues --   -1.41081  -1.39015  -1.16841  -1.08469  -1.03572
 Alpha  occ. eigenvalues --   -1.00212  -0.92808  -0.89943  -0.87422  -0.82404
 Alpha  occ. eigenvalues --   -0.80023  -0.76778  -0.75519  -0.71618  -0.71083
 Alpha  occ. eigenvalues --   -0.69449  -0.68258  -0.67534  -0.66318  -0.63268
 Alpha  occ. eigenvalues --   -0.62520  -0.62008  -0.58979  -0.58828  -0.50307
 Alpha  occ. eigenvalues --   -0.49213
 Alpha virt. eigenvalues --   -0.20047  -0.16451  -0.15587  -0.13486  -0.10771
 Alpha virt. eigenvalues --   -0.10480  -0.09783  -0.09059  -0.08494  -0.07631
 Alpha virt. eigenvalues --   -0.07026  -0.06623  -0.05202  -0.05091  -0.04367

 Mulliken charges:
               1
     1  C    0.059713
     2  C   -0.297941
     3  C   -0.089200
     4  C   -0.180138
     5  C   -0.208807
     6  C   -0.415801
     7  S    0.401124
     8  O   -0.037742
     9  O   -0.206029
    10  O   -0.093053
    11  H    0.274943
    12  H    0.261221
    13  H    0.252598
    14  H    0.267818
    15  H    0.275787
    16  H    0.386125
    17  H    0.349381
 Sum of Mulliken charges =   1.00000

 Dipole moment (field-independent basis, Debye):
    X=             -0.2207    Y=              3.1176    Z=              1.0331  Tot=              3.2917
 Quadrupole moment (field-independent basis, Debye-Ang):
   XX=            -33.5109   YY=            -52.2278   ZZ=            -60.6548
   XY=              8.9953   XZ=             -1.6542   YZ=              1.2647

  Exact polarizability: 119.586  -0.179  93.691  -1.116   1.380  58.097
 Approx polarizability: 141.724  -2.935 133.581  -1.747   2.882  76.907

                      1                      2                      3
                      A                      A                      A
 Frequencies --     43.1507               109.3690               178.0475
 Red. masses --      5.0900                 4.9747                 4.6909
 Frc consts  --      0.0056                 0.0351                 0.0876
 IR Inten    --      1.4596                 1.8006                15.2724

                      4                      5                      6
                      A                      A                      A
 Frequencies --    240.7971               259.8579               309.8320
 Red. masses --      1.3991                 1.5096                 6.4150
 Frc consts  --      0.0478                 0.0601                 0.3628
 IR Inten    --     80.8548                80.9157                16.0350

                      7                      8                      9
                      A                      A                      A
 Frequencies --    325.5793               360.7838               397.1675
 Red. masses --      2.4689                 4.0777                 2.9003
 Frc consts  --      0.1542                 0.3127                 0.2695
 IR Inten    --     12.8357                38.5925                 0.0637

                     10                     11                     12
                      A                      A                      A
 Frequencies --    448.6781               469.7297               514.6199
 Red. masses --      3.6535                 6.7284                 5.5823
 Frc consts  --      0.4333                 0.8747                 0.8710
 IR Inten    --     31.0487                31.0928                71.2058

                     13                     14                     15
                      A                      A                      A
 Frequencies --    538.7447               616.6596               684.5452
 Red. masses --      7.1786                 6.4679                 2.7039
 Frc consts  --      1.2276                 1.4491                 0.7465
 IR Inten    --    103.2204                 0.2716                26.2624

                     16                     17                     18
                      A                      A                      A
 Frequencies --    715.0490               768.1650               858.0552
 Red. masses --      6.3522                 1.3564                 1.2504
 Frc consts  --      1.9136                 0.4716                 0.5424
 IR Inten    --      6.9208                65.4563                 1.2773

                     19                     20                     21
                      A                      A                      A
 Frequencies --    881.7883               934.0720               965.7029
 Red. masses --     10.1806                15.8156                 1.2861
 Frc consts  --      4.6639                 8.1301                 0.7067
 IR Inten    --    263.7375               294.6483                 1.7183

                     22                     23                     24
                      A                      A                      A
 Frequencies --   1008.6358              1014.5560              1042.2052
 Red. masses --      5.0485                 1.4181                 1.3306
 Frc consts  --      3.0261                 0.8600                 0.8515
 IR Inten    --      3.7995                 0.3884                 0.1948

                     25                     26                     27
                      A                      A                      A
 Frequencies --   1049.6368              1070.3260              1089.2738
 Red. masses --      2.9855                 1.2231                 1.6669
 Frc consts  --      1.9380                 0.8255                 1.1653
 IR Inten    --      9.3797               125.9486                40.2856

                     28                     29                     30
                      A                      A                      A
 Frequencies --   1122.9777              1126.7200              1198.4597
 Red. masses --      1.6942                 1.5208                 1.1352
 Frc consts  --      1.2588                 1.1375                 0.9607
 IR Inten    --    131.3039                 6.5942                 0.8755

                     31                     32                     33
                      A                      A                      A
 Frequencies --   1214.3092              1341.0227              1356.1143
 Red. masses --      1.1518                 2.7221                 1.7815
 Frc consts  --      1.0007                 2.8843                 1.9303
 IR Inten    --      0.5221                 4.7271                20.1656

                     34                     35                     36
                      A                      A                      A
 Frequencies --   1402.1474              1495.8281              1509.4872
 Red. masses --     13.2096                 2.2995                 2.0100
 Frc consts  --     15.3013                 3.0315                 2.6983
 IR Inten    --    189.3586                43.4037                 2.9902

                     37                     38                     39
                      A                      A                      A
 Frequencies --   1639.7861              1652.8104              3219.4718
 Red. masses --      5.4210                 5.9931                 1.0904
 Frc consts  --      8.5882                 9.6460                 6.6592
 IR Inten    --     15.5480                 1.0770                 3.3052

                     40                     41                     42
                      A                      A                      A
 Frequencies --   3222.2265              3226.1107              3238.7906
 Red. masses --      1.0914                 1.0933                 1.0959
 Frc consts  --      6.6768                 6.7042                 6.7733
 IR Inten    --      7.5694                 2.9705                 7.9107

                     43                     44                     45
                      A                      A                      A
 Frequencies --   3242.9069              3720.5698              3750.2861
 Red. masses --      1.0994                 1.0665                 1.0672
 Frc consts  --      6.8120                 8.6983                 8.8438
 IR Inten    --      1.5091               422.7466               208.8956

 - Thermochemistry -
 -------------------
 Temperature     0.001 Kelvin.  Pressure   1.00000 Atm.
 Atom     1 has atomic number  6 and mass  12.00000

 Molecular mass:   159.01159 amu.
 Principal axes and moments of inertia in atomic units:
                           1         2         3
     Eigenvalues --   699.484282165.152252493.01168
           X            0.99994   0.01104  -0.00053
           Y           -0.01103   0.99993   0.00471
           Z            0.00058  -0.00471   0.99999
 This molecule is an asymmetric top.
 Rotational symmetry number  1.
 Warning -- assumption of classical behavior for rotation
           may cause significant error
 Rotational temperatures (Kelvin)      0.12383     0.04000     0.03474
 Rotational constants (GHZ):           2.58010     0.83354     0.72392
 Zero-point vibrational energy     332412.6 (Joules/Mol)
                                   79.44853 (Kcal/Mol)
 Vibrational temperatures:     62.08   157.36   256.17   346.45   373.88
          (Kelvin)            445.78   468.44   519.09   571.44   645.55
                              675.84   740.42   775.13   887.24   984.91
                             1028.80  1105.22  1234.55  1268.70  1343.92
                             1389.43  1451.20  1459.72  1499.50  1510.19
                             1539.96  1567.22  1615.71  1621.10  1724.32
                             1747.12  1929.43  1951.15  2017.38  2152.16
                             2171.82  2359.29  2378.03  4632.10  4636.07
                             4641.65  4659.90  4665.82  5353.07  5395.83

 Zero-point correction=                           0.126609 (Hartree/Particle)
 Thermal correction to Energy=                    0.126609
 Thermal correction to Enthalpy=                  0.126609
 Thermal correction to Gibbs Free Energy=         0.126609
 Sum of electronic and zero-point Energies=           -856.164298
 Sum of electronic and thermal Energies=              -856.164298
 Sum of electronic and thermal Enthalpies=            -856.164298
 Sum of electronic and thermal Free Energies=         -856.164298

                     E (Thermal)             CV                S
                      KCal/Mol        Cal/Mol-Kelvin    Cal/Mol-Kelvin
 Total                   79.449              5.962            -29.383
 Electronic               0.000              0.000              0.000
 Translational            0.000              2.981            -21.523
 Rotational               0.000              2.981             -7.860
 Vibrational             79.449              0.000              0.000

                           ! Non-Optimized Parameters !
 Normal termination of Gaussian 16 at Mon Oct 14 09:11:11 2019.
