 Gaussian 16, Revision A.03,
 Gaussian 16:  ES64L-G16RevA.03 25-Dec-2016

 ------------------------------------------------------------
 #P opt freq m062x/DGDZVP geom=connectivity temperature=0.001
 ------------------------------------------------------------

 ----------------------
 pyridone_1_acetic_acid
 ----------------------
 Symbolic Z-matrix:
 Charge =  0 Multiplicity = 1

 SCF Done:  E(RM062X) =  -14390.4968053     A.U. after   18 cycles
 SCF Done:  E(RM062X) =  -14390.5224738     A.U. after   15 cycles
 SCF Done:  E(RM062X) =  -14390.5296213     A.U. after   15 cycles
 SCF Done:  E(RM062X) =  -14390.5300849     A.U. after   14 cycles
 SCF Done:  E(RM062X) =  -14390.5303744     A.U. after   14 cycles
 SCF Done:  E(RM062X) =  -14390.5308003     A.U. after   14 cycles
 SCF Done:  E(RM062X) =  -14390.5311879     A.U. after   15 cycles
 SCF Done:  E(RM062X) =  -14390.5313436     A.U. after   13 cycles
 SCF Done:  E(RM062X) =  -14390.5313752     A.U. after   13 cycles
 SCF Done:  E(RM062X) =  -14390.5313881     A.U. after   10 cycles
 SCF Done:  E(RM062X) =  -14390.5313445     A.U. after   19 cycles
 SCF Done:  E(RM062X) =  -14390.5332120     A.U. after   15 cycles
 SCF Done:  E(RM062X) =  -14390.5332479     A.U. after   14 cycles
 SCF Done:  E(RM062X) =  -14390.5332539     A.U. after   13 cycles
 SCF Done:  E(RM062X) =  -14390.5332582     A.U. after   12 cycles
 SCF Done:  E(RM062X) =  -14390.5332599     A.U. after   12 cycles
 SCF Done:  E(RM062X) =  -14390.5332615     A.U. after   12 cycles
 SCF Done:  E(RM062X) =  -14390.5332616     A.U. after    9 cycles
 SCF Done:  E(RM062X) =  -14390.5332616     A.U. after    8 cycles
 Optimization completed.
    -- Stationary point found.
 Normal termination of Gaussian 16 at Mon Oct 14 09:11:43 2019.

 ------------------------------------------------------------------
 #P Geom=AllCheck Guess=TCheck SCRF=Check GenChk RM062X/DGDZVP Freq
 ------------------------------------------------------------------

 Structure from the checkpoint file:  "06.chk"
 ----------------------
 pyridone_1_acetic_acid
 ----------------------
 Charge =  0 Multiplicity = 1

                         Standard orientation:
 ---------------------------------------------------------------------
 Center     Atomic      Atomic             Coordinates (Angstroms)
 Number     Number       Type             X           Y           Z
 ---------------------------------------------------------------------
      1          6           0       -1.221180   -0.214972   -0.213598
      2          6           0       -1.183922    1.090837   -0.575479
      3          7           0        0.000005    1.752121   -0.782899
      4          6           0        1.183934    1.090816   -0.575522
      5          6           0        1.221160   -0.214985   -0.213651
      6          6           0       -0.000028   -1.007110    0.003037
      7          8           0       -0.000021   -2.185085    0.325342
      8         53           0       -3.056431   -1.177061    0.056965
      9         53           0        3.056334   -1.177208    0.056919
     10          6           0       -0.000009    3.186871   -1.000603
     11          6           0        0.000141    4.024118    0.272779
     12          8           0       -0.000105    5.228551    0.254786
     13          8           0        0.000615    3.279416    1.386349
     14          1           0       -0.876820    3.476202   -1.583132
     15          1           0        0.876683    3.476183   -1.583338
     16          1           0       -2.084237    1.677257   -0.725752
     17          1           0        2.084244    1.677251   -0.725775
     18          1           0        0.000735    3.887974    2.148845
 ---------------------------------------------------------------------

 SCF Done:  E(RM062X) =  -14390.5332616     A.U. after    1 cycles

 The electronic state is 1-A.
 Alpha  occ. eigenvalues -- ********************-177.85309-177.85308-167.28431
 Alpha  occ. eigenvalues -- -167.28430-167.28269-167.28269-167.28265-167.28265
 Alpha  occ. eigenvalues --  -36.43139 -36.43139 -31.94969 -31.94964 -31.94482
 Alpha  occ. eigenvalues --  -31.94481 -31.94470 -31.94469 -23.51215 -23.51215
 Alpha  occ. eigenvalues --  -23.51087 -23.51087 -23.51075 -23.51075 -23.50682
 Alpha  occ. eigenvalues --  -23.50682 -23.50681 -23.50681 -19.71953 -19.66900
 Alpha  occ. eigenvalues --  -19.61169 -14.86843 -10.74713 -10.66320 -10.65890
 Alpha  occ. eigenvalues --  -10.64933 -10.64931 -10.62275 -10.62274  -6.61766
 Alpha  occ. eigenvalues --   -6.61766  -5.01234  -5.01234  -4.99883  -4.99883
 Alpha  occ. eigenvalues --   -4.99854  -4.99854  -2.18769  -2.18769  -2.18202
 Alpha  occ. eigenvalues --   -2.18201  -2.18187  -2.18186  -2.16995  -2.16995
 Alpha  occ. eigenvalues --   -2.16995  -2.16995  -1.28780  -1.19147  -1.16583
 Alpha  occ. eigenvalues --   -1.15303  -0.96004  -0.92817  -0.87869  -0.80089
 Alpha  occ. eigenvalues --   -0.76665  -0.75388  -0.72541  -0.69456  -0.65763
 Alpha  occ. eigenvalues --   -0.63088  -0.62946  -0.60204  -0.59505  -0.57204
 Alpha  occ. eigenvalues --   -0.54050  -0.53694  -0.52322  -0.51837  -0.50314
 Alpha  occ. eigenvalues --   -0.47258  -0.45913  -0.44095  -0.42581  -0.40549
 Alpha  occ. eigenvalues --   -0.40305  -0.35246  -0.33905  -0.32884  -0.32057
 Alpha  occ. eigenvalues --   -0.31139  -0.28493
 Alpha virt. eigenvalues --   -0.02387  -0.01854  -0.01570   0.01088   0.01319
 Alpha virt. eigenvalues --    0.07158   0.09394   0.12728   0.13011   0.14513
 Alpha virt. eigenvalues --    0.15692   0.16055   0.18084   0.18595   0.19720

 Mulliken charges:
               1
     1  C   -0.202432
     2  C   -0.097479
     3  N   -0.218033
     4  C   -0.097448
     5  C   -0.202448
     6  C    0.517922
     7  O   -0.385907
     8  I   -0.008955
     9  I   -0.008952
    10  C   -0.512584
    11  C    0.455307
    12  O   -0.362190
    13  O   -0.536106
    14  H    0.308739
    15  H    0.308738
    16  H    0.283806
    17  H    0.283809
    18  H    0.474213
 Sum of Mulliken charges =  -0.00000

 Dipole moment (field-independent basis, Debye):
    X=              0.0006    Y=              5.9535    Z=             -1.1639  Tot=              6.0662
 Quadrupole moment (field-independent basis, Debye-Ang):
   XX=           -115.3215   YY=           -130.4527   ZZ=           -114.4577
   XY=              0.0035   XZ=              0.0014   YZ=              0.8091

  Exact polarizability: 184.190  -0.003 174.366   0.001 -16.393  89.146
 Approx polarizability: 207.783  -0.005 228.880   0.001 -29.116 127.535

                      1                      2                      3
                      A                      A                      A
 Frequencies --     17.6388                27.8813                45.3252
 Red. masses --     11.0400                 8.8595                 9.6423
 Frc consts  --      0.0020                 0.0041                 0.0117
 IR Inten    --      3.0804                 0.2592                 1.0770

                      4                      5                      6
                      A                      A                      A
 Frequencies --     57.6659                95.4973               183.8571
 Red. masses --     16.1926                26.6207                 4.3381
 Frc consts  --      0.0317                 0.1430                 0.0864
 IR Inten    --      3.7878                 0.1257                 4.4823

                      7                      8                      9
                      A                      A                      A
 Frequencies --    190.2944               202.7686               217.6790
 Red. masses --     10.4748                 4.6814                16.9968
 Frc consts  --      0.2235                 0.1134                 0.4745
 IR Inten    --      0.2243                 0.1077                 1.7216

                     10                     11                     12
                      A                      A                      A
 Frequencies --    257.9405               309.6328               362.4233
 Red. masses --      9.6752                 7.1524                 9.5246
 Frc consts  --      0.3793                 0.4040                 0.7371
 IR Inten    --      3.0352                 1.1534                 2.6907

                     13                     14                     15
                      A                      A                      A
 Frequencies --    394.1198               441.2670               520.1330
 Red. masses --      3.0654                 4.3939                 4.1505
 Frc consts  --      0.2805                 0.5041                 0.6616
 IR Inten    --      0.2856                 0.0640                 2.6493

                     16                     17                     18
                      A                      A                      A
 Frequencies --    520.5961               571.4328               605.6586
 Red. masses --      1.7914                 5.3610                 5.7718
 Frc consts  --      0.2861                 1.0314                 1.2474
 IR Inten    --     18.3588                41.4994                 0.7491

                     19                     20                     21
                      A                      A                      A
 Frequencies --    634.2012               695.8877               742.1501
 Red. masses --      5.3141                 1.4756                 9.2898
 Frc consts  --      1.2593                 0.4210                 3.0147
 IR Inten    --     61.9466               132.5479                38.8828

                     22                     23                     24
                      A                      A                      A
 Frequencies --    774.4635               847.9468               879.8768
 Red. masses --     12.1577                 5.9908                 3.9314
 Frc consts  --      4.2964                 2.5379                 1.7933
 IR Inten    --     20.4894                10.5681                 3.9024

                     25                     26                     27
                      A                      A                      A
 Frequencies --    887.0798               907.2823               936.6124
 Red. masses --      1.4010                 1.3999                 5.6878
 Frc consts  --      0.6496                 0.6790                 2.9398
 IR Inten    --      0.1752                27.4312                17.1543

                     28                     29                     30
                      A                      A                      A
 Frequencies --   1001.1764              1110.4620              1175.1160
 Red. masses --      2.4466                 3.9890                 3.2755
 Frc consts  --      1.4449                 2.8981                 2.6650
 IR Inten    --     22.6868                 7.9010                22.6118

                     31                     32                     33
                      A                      A                      A
 Frequencies --   1226.8304              1261.4328              1264.3758
 Red. masses --      1.9958                 1.1549                 1.9752
 Frc consts  --      1.7698                 1.0827                 1.8604
 IR Inten    --    139.1392                 4.1766               242.6707

                     34                     35                     36
                      A                      A                      A
 Frequencies --   1367.8722              1387.0984              1404.2999
 Red. masses --      1.4481                 1.6200                 2.2960
 Frc consts  --      1.5963                 1.8364                 2.6677
 IR Inten    --     57.8698                25.0800                34.9323

                     37                     38                     39
                      A                      A                      A
 Frequencies --   1428.5615              1485.7088              1506.4127
 Red. masses --      3.6172                 1.1191                 5.4468
 Frc consts  --      4.3493                 1.4554                 7.2825
 IR Inten    --     80.1092                 7.8563                77.7136

                     40                     41                     42
                      A                      A                      A
 Frequencies --   1620.6336              1704.3015              1772.1565
 Red. masses --      7.2964                 5.9840                13.1452
 Frc consts  --     11.2908                10.2409                24.3232
 IR Inten    --     12.6990               143.5674               331.0218

                     43                     44                     45
                      A                      A                      A
 Frequencies --   1900.1225              3125.8133              3190.0723
 Red. masses --     10.6955                 1.0623                 1.1061
 Frc consts  --     22.7518                 6.1152                 6.6321
 IR Inten    --    500.7938                13.5493                 0.1173

                     46                     47                     48
                      A                      A                      A
 Frequencies --   3251.3782              3253.6937              3766.3891
 Red. masses --      1.0940                 1.0959                 1.0650
 Frc consts  --      6.8142                 6.8357                 8.9014
 IR Inten    --      0.4292                 0.0065               139.5340

 - Thermochemistry -
 -------------------
 Temperature     0.001 Kelvin.  Pressure   1.00000 Atm.
 Atom     1 has atomic number  6 and mass  12.00000

 Molecular mass:   404.82774 amu.
 Principal axes and moments of inertia in atomic units:
                           1         2         3
     Eigenvalues --  5532.483729021.02645**********
           X            1.00000   0.00001   0.00000
           Y           -0.00001   1.00000  -0.00212
           Z           -0.00000   0.00212   1.00000
 This molecule is an asymmetric top.
 Rotational symmetry number  1.
 Warning -- assumption of classical behavior for rotation
           may cause significant error
 Rotational temperatures (Kelvin)      0.01566     0.00960     0.00618
 Rotational constants (GHZ):           0.32621     0.20006     0.12878
 Zero-point vibrational energy     308225.1 (Joules/Mol)
                                   73.66758 (Kcal/Mol)
 Vibrational temperatures:     25.38    40.11    65.21    82.97   137.40
          (Kelvin)            264.53   273.79   291.74   313.19   371.12
                              445.49   521.45   567.05   634.88   748.36
                              749.02   822.16   871.41   912.47  1001.23
                             1067.79  1114.28  1220.01  1265.95  1276.31
                             1305.38  1347.58  1440.47  1597.71  1690.73
                             1765.14  1814.92  1819.15  1968.06  1995.73
                             2020.47  2055.38  2137.60  2167.39  2331.73
                             2452.11  2549.74  2733.85  4497.35  4589.80
                             4678.01  4681.34  5418.99

 Zero-point correction=                           0.117397 (Hartree/Particle)
 Thermal correction to Energy=                    0.117397
 Thermal correction to Enthalpy=                  0.117397
 Thermal correction to Gibbs Free Energy=         0.117397
 Sum of electronic and zero-point Energies=         -14390.415865
 Sum of electronic and thermal Energies=            -14390.415865
 Sum of electronic and thermal Enthalpies=          -14390.415865
 Sum of electronic and thermal Free Energies=       -14390.415865

                     E (Thermal)             CV                S
                      KCal/Mol        Cal/Mol-Kelvin    Cal/Mol-Kelvin
 Total                   73.668              5.962            -21.410
 Electronic               0.000              0.000              0.000
 Translational            0.000              2.981            -18.737
 Rotational               0.000              2.981             -2.672
 Vibrational             73.668              0.000              0.000

 Optimization completed.
    -- Stationary point found.
 Normal termination of Gaussian 16 at Mon Oct 14 09:13:04 2019.
