 Gaussian 16, Revision A.03,
 Gaussian 16:  ES64L-G16RevA.03 25-Dec-2016

 ------------------------------------------------------------
 #P opt freq m062x/DGDZVP geom=connectivity temperature=0.001
 ------------------------------------------------------------

 ---------------------------
 pyridone_1_acetic_acid_plus
 ---------------------------
 Symbolic Z-matrix:
 Charge =  1 Multiplicity = 1

 SCF Done:  E(RM062X) =  -14390.8507181     A.U. after   17 cycles
 SCF Done:  E(RM062X) =  -14390.8783992     A.U. after   15 cycles
 SCF Done:  E(RM062X) =  -14390.8875019     A.U. after   15 cycles
 SCF Done:  E(RM062X) =  -14390.8899887     A.U. after   14 cycles
 SCF Done:  E(RM062X) =  -14390.8922841     A.U. after   15 cycles
 SCF Done:  E(RM062X) =  -14390.8928516     A.U. after   14 cycles
 SCF Done:  E(RM062X) =  -14390.8939346     A.U. after   14 cycles
 SCF Done:  E(RM062X) =  -14390.8950777     A.U. after   16 cycles
 SCF Done:  E(RM062X) =  -14390.8959767     A.U. after   14 cycles
 SCF Done:  E(RM062X) =  -14390.8970055     A.U. after   15 cycles
 SCF Done:  E(RM062X) =  -14390.8973043     A.U. after   14 cycles
 SCF Done:  E(RM062X) =  -14390.8973876     A.U. after   13 cycles
 SCF Done:  E(RM062X) =  -14390.8974159     A.U. after   13 cycles
 SCF Done:  E(RM062X) =  -14390.8974231     A.U. after   12 cycles
 SCF Done:  E(RM062X) =  -14390.8974462     A.U. after   13 cycles
 SCF Done:  E(RM062X) =  -14390.8974510     A.U. after   12 cycles
 SCF Done:  E(RM062X) =  -14390.8974519     A.U. after   12 cycles
 SCF Done:  E(RM062X) =  -14390.8974521     A.U. after    7 cycles
 Optimization completed.
    -- Stationary point found.
 Normal termination of Gaussian 16 at Mon Oct 14 09:08:34 2019.

 ------------------------------------------------------------------
 #P Geom=AllCheck Guess=TCheck SCRF=Check GenChk RM062X/DGDZVP Freq
 ------------------------------------------------------------------

 Structure from the checkpoint file:  "06_p.chk"
 ---------------------------
 pyridone_1_acetic_acid_plus
 ---------------------------
 Charge =  1 Multiplicity = 1

                         Standard orientation:
 ---------------------------------------------------------------------
 Center     Atomic      Atomic             Coordinates (Angstroms)
 Number     Number       Type             X           Y           Z
 ---------------------------------------------------------------------
      1          6           0       -1.089837   -0.426523   -0.202943
      2          6           0       -1.287835    0.897417   -0.516336
      3          7           0       -0.247319    1.751398   -0.671631
      4          6           0        1.023036    1.330597   -0.490949
      5          6           0        1.300160    0.019479   -0.174821
      6          6           0        0.232691   -0.894852   -0.023917
      7          8           0        0.392405   -2.167446    0.276018
      8         53           0       -2.715685   -1.708702    0.016727
      9         53           0        3.282302   -0.597809    0.083941
     10          6           0       -0.529613    3.171729   -0.921579
     11          6           0       -1.106770    3.808992    0.340973
     12          8           0       -1.437021    3.179569    1.310970
     13          8           0       -1.199350    5.125308    0.181834
     14          1           0       -1.247963    3.264881   -1.738952
     15          1           0        0.385232    3.682989   -1.220592
     16          1           0       -2.280079    1.314042   -0.648159
     17          1           0        1.805242    2.071303   -0.610978
     18          1           0       -1.595058    5.518813    0.984326
     19          1           0        1.333891   -2.407175    0.387191
 ---------------------------------------------------------------------

 SCF Done:  E(RM062X) =  -14390.8974521     A.U. after    1 cycles

 The electronic state is 1-A.
 Alpha  occ. eigenvalues -- ********************-178.01136-177.98920-167.44266
 Alpha  occ. eigenvalues -- -167.44087-167.44082-167.42058-167.41872-167.41865
 Alpha  occ. eigenvalues --  -36.58988 -36.56751 -32.10850 -32.10308 -32.10291
 Alpha  occ. eigenvalues --  -32.08631 -32.08065 -32.08044 -23.67088 -23.66943
 Alpha  occ. eigenvalues --  -23.66933 -23.66491 -23.66490 -23.64870 -23.64722
 Alpha  occ. eigenvalues --  -23.64702 -23.64243 -23.64243 -19.84620 -19.82713
 Alpha  occ. eigenvalues --  -19.78623 -15.04105 -10.86421 -10.84544 -10.81151
 Alpha  occ. eigenvalues --  -10.80514 -10.79345 -10.78695 -10.78421  -6.77665
 Alpha  occ. eigenvalues --   -6.75395  -5.17204  -5.15778  -5.15674  -5.14987
 Alpha  occ. eigenvalues --   -5.13440  -5.13402  -2.34744  -2.34194  -2.34076
 Alpha  occ. eigenvalues --   -2.32841  -2.32834  -2.32517  -2.31885  -2.31867
 Alpha  occ. eigenvalues --   -2.30497  -2.30496  -1.40088  -1.39373  -1.32409
 Alpha  occ. eigenvalues --   -1.30447  -1.12915  -1.08930  -1.03403  -0.97100
 Alpha  occ. eigenvalues --   -0.93587  -0.90476  -0.86425  -0.84669  -0.84328
 Alpha  occ. eigenvalues --   -0.79869  -0.77357  -0.76352  -0.73226  -0.72197
 Alpha  occ. eigenvalues --   -0.70695  -0.70385  -0.68326  -0.66562  -0.64918
 Alpha  occ. eigenvalues --   -0.63615  -0.62324  -0.61631  -0.57089  -0.55696
 Alpha  occ. eigenvalues --   -0.55195  -0.53258  -0.51779  -0.49089  -0.46172
 Alpha  occ. eigenvalues --   -0.45886  -0.44405
 Alpha virt. eigenvalues --   -0.19757  -0.18077  -0.16579  -0.12769  -0.10594
 Alpha virt. eigenvalues --   -0.04644  -0.03654  -0.02619  -0.02325   0.00460
 Alpha virt. eigenvalues --    0.01703   0.02187   0.03476   0.04261   0.04926

 Mulliken charges:
               1
     1  C   -0.176102
     2  C   -0.058717
     3  N   -0.165463
     4  C   -0.082659
     5  C   -0.217634
     6  C    0.547242
     7  O   -0.499296
     8  I    0.147451
     9  I    0.125941
    10  C   -0.495839
    11  C    0.458407
    12  O   -0.344141
    13  O   -0.521946
    14  H    0.340956
    15  H    0.319368
    16  H    0.335302
    17  H    0.312186
    18  H    0.493719
    19  H    0.481225
 Sum of Mulliken charges =   1.00000

 Dipole moment (field-independent basis, Debye):
    X=              1.1158    Y=              6.0802    Z=             -2.3673  Tot=              6.6195
 Quadrupole moment (field-independent basis, Debye-Ang):
   XX=            -88.5027   YY=            -73.9186   ZZ=           -117.3180
   XY=             -8.1726   XZ=              2.5009   YZ=             -4.7060

  Exact polarizability: 189.550   4.255 166.163   0.391 -13.363  85.069
 Approx polarizability: 224.805   8.041 210.478   0.492 -23.837 124.180

                      1                      2                      3
                      A                      A                      A
 Frequencies --     23.5555                48.0812                58.7380
 Red. masses --     10.3416                 9.8673                11.0482
 Frc consts  --      0.0034                 0.0134                 0.0225
 IR Inten    --      1.3505                 0.5370                 0.2025

                      4                      5                      6
                      A                      A                      A
 Frequencies --     68.1507               102.6106               189.8650
 Red. masses --      8.5820                22.4005                 4.3037
 Frc consts  --      0.0235                 0.1390                 0.0914
 IR Inten    --      0.3380                 1.0693                 1.0645

                      7                      8                      9
                      A                      A                      A
 Frequencies --    193.1514               201.1499               222.3165
 Red. masses --      4.5501                 8.4800                12.2203
 Frc consts  --      0.1000                 0.2022                 0.3559
 IR Inten    --      0.3651                 0.7919                 1.1043

                     10                     11                     12
                      A                      A                      A
 Frequencies --    270.5151               334.4082               367.2399
 Red. masses --      8.4697                 7.8740                 6.1055
 Frc consts  --      0.3652                 0.5188                 0.4851
 IR Inten    --      2.6920                 2.0193                 6.0744

                     13                     14                     15
                      A                      A                      A
 Frequencies --    399.0401               457.1144               516.9211
 Red. masses --      3.3591                 2.9659                 1.7527
 Frc consts  --      0.3151                 0.3651                 0.2759
 IR Inten    --      3.6626                15.8454                23.8715

                     16                     17                     18
                      A                      A                      A
 Frequencies --    521.9390               551.4738               572.6018
 Red. masses --      1.3009                 4.5247                 4.5615
 Frc consts  --      0.2088                 0.8108                 0.8812
 IR Inten    --     79.4345                50.9585                 4.1964

                     19                     20                     21
                      A                      A                      A
 Frequencies --    581.5019               668.7008               684.6783
 Red. masses --      4.2926                 1.6594                 3.6360
 Frc consts  --      0.8552                 0.4372                 1.0043
 IR Inten    --     40.3570               116.9264                37.0690

                     22                     23                     24
                      A                      A                      A
 Frequencies --    753.1469               764.6968               847.9928
 Red. masses --      8.6215                 8.4475                 5.2876
 Frc consts  --      2.8813                 2.9104                 2.2402
 IR Inten    --     19.6239                22.5005                 3.0634

                     25                     26                     27
                      A                      A                      A
 Frequencies --    895.5546               908.5953               925.0886
 Red. masses --      2.7611                 1.4085                 1.5391
 Frc consts  --      1.3047                 0.6851                 0.7761
 IR Inten    --     25.0208                 0.5727                20.4154

                     28                     29                     30
                      A                      A                      A
 Frequencies --    972.3030              1008.5887              1151.1614
 Red. masses --      6.2173                 2.3695                 3.8467
 Frc consts  --      3.4630                 1.4202                 3.0034
 IR Inten    --      0.4438                10.6001                 6.6000

                     31                     32                     33
                      A                      A                      A
 Frequencies --   1183.2506              1220.0882              1240.8199
 Red. masses --      1.8049                 2.0994                 1.2379
 Frc consts  --      1.4889                 1.8413                 1.1230
 IR Inten    --    178.8973               239.5479               172.3061

                     34                     35                     36
                      A                      A                      A
 Frequencies --   1266.7212              1324.9536              1330.7978
 Red. masses --      2.1432                 1.4284                 1.3741
 Frc consts  --      2.0262                 1.4774                 1.4338
 IR Inten    --     51.9242                78.2245                20.3501

                     37                     38                     39
                      A                      A                      A
 Frequencies --   1380.2005              1397.9006              1454.6448
 Red. masses --      2.4575                 3.4528                 2.7519
 Frc consts  --      2.7582                 3.9753                 3.4309
 IR Inten    --      0.9234                53.8451               138.3928

                     40                     41                     42
                      A                      A                      A
 Frequencies --   1491.2291              1523.3857              1537.1261
 Red. masses --      1.1731                 3.0361                 6.7128
 Frc consts  --      1.5370                 4.1514                 9.3449
 IR Inten    --     23.2303                54.1588               170.5714

                     43                     44                     45
                      A                      A                      A
 Frequencies --   1614.3106              1690.3586              1909.4385
 Red. masses --      6.4204                 5.4291                11.2210
 Frc consts  --      9.8579                 9.1399                24.1042
 IR Inten    --      8.5572               103.5053               331.9366

                     46                     47                     48
                      A                      A                      A
 Frequencies --   3132.8987              3209.3469              3269.8598
 Red. masses --      1.0633                 1.1071                 1.0956
 Frc consts  --      6.1490                 6.7185                 6.9017
 IR Inten    --      5.4654                 2.0945                17.7159

                     49                     50                     51
                      A                      A                      A
 Frequencies --   3271.7948              3699.7302              3742.7604
 Red. masses --      1.0979                 1.0661                 1.0653
 Frc consts  --      6.9245                 8.5978                 8.7926
 IR Inten    --      5.7694               213.0219               211.0214

 - Thermochemistry -
 -------------------
 Temperature     0.001 Kelvin.  Pressure   1.00000 Atm.
 Atom     1 has atomic number  6 and mass  12.00000

 Molecular mass:   405.83557 amu.
 Principal axes and moments of inertia in atomic units:
                           1         2         3
     Eigenvalues --  5596.060529031.54964**********
           X            0.99719  -0.07495  -0.00138
           Y            0.07494   0.99718  -0.00462
           Z            0.00172   0.00451   0.99999
 This molecule is an asymmetric top.
 Rotational symmetry number  1.
 Warning -- assumption of classical behavior for rotation
           may cause significant error
 Rotational temperatures (Kelvin)      0.01548     0.00959     0.00610
 Rotational constants (GHZ):           0.32250     0.19983     0.12719
 Zero-point vibrational energy     341847.9 (Joules/Mol)
                                   81.70360 (Kcal/Mol)
 Vibrational temperatures:     33.89    69.18    84.51    98.05   147.63
          (Kelvin)            273.17   277.90   289.41   319.86   389.21
                              481.14   528.38   574.13   657.69   743.73
                              750.95   793.45   823.85   836.65   962.11
                              985.10  1083.61  1100.23  1220.07  1288.50
                             1307.27  1331.00  1398.93  1451.13  1656.26
                             1702.43  1755.43  1785.26  1822.53  1906.31
                             1914.72  1985.80  2011.27  2092.91  2145.55
                             2191.81  2211.58  2322.63  2432.05  2747.26
                             4507.54  4617.53  4704.60  4707.38  5323.09
                             5385.00

 Zero-point correction=                           0.130203 (Hartree/Particle)
 Thermal correction to Energy=                    0.130203
 Thermal correction to Enthalpy=                  0.130203
 Thermal correction to Gibbs Free Energy=         0.130203
 Sum of electronic and zero-point Energies=         -14390.767249
 Sum of electronic and thermal Energies=            -14390.767249
 Sum of electronic and thermal Enthalpies=          -14390.767249
 Sum of electronic and thermal Free Energies=       -14390.767249

                     E (Thermal)             CV                S
                      KCal/Mol        Cal/Mol-Kelvin    Cal/Mol-Kelvin
 Total                   81.704              5.962            -21.377
 Electronic               0.000              0.000              0.000
 Translational            0.000              2.981            -18.730
 Rotational               0.000              2.981             -2.647
 Vibrational             81.704              0.000              0.000

 Optimization completed.
    -- Stationary point found.
 Normal termination of Gaussian 16 at Mon Oct 14 09:09:58 2019.
