 Gaussian 16, Revision A.03,
 Gaussian 16:  ES64L-G16RevA.03 25-Dec-2016

 ------------------------------------------------------------
 #p opt freq m062x/dgdzvp geom=connectivity temperature=0.001
 ------------------------------------------------------------

 ----------------------
 pyridone_1_acetic_acid
 ----------------------
 Symbolic Z-matrix:
 Charge =  1 Multiplicity = 1

 SCF Done:  E(RM062X) =  -14390.7606805     A.U. after   21 cycles
 SCF Done:  E(RM062X) =  -14390.7895635     A.U. after   16 cycles
 SCF Done:  E(RM062X) =  -14390.8005005     A.U. after   15 cycles
 SCF Done:  E(RM062X) =  -14390.8025069     A.U. after   15 cycles
 SCF Done:  E(RM062X) =  -14390.8037588     A.U. after   15 cycles
 SCF Done:  E(RM062X) =  -14390.8041621     A.U. after   15 cycles
 SCF Done:  E(RM062X) =  -14390.8043780     A.U. after   14 cycles
 SCF Done:  E(RM062X) =  -14390.8044465     A.U. after   14 cycles
 SCF Done:  E(RM062X) =  -14390.8044623     A.U. after   13 cycles
 SCF Done:  E(RM062X) =  -14390.8044726     A.U. after   12 cycles
 SCF Done:  E(RM062X) =  -14390.8044752     A.U. after   12 cycles
 SCF Done:  E(RM062X) =  -14390.8044764     A.U. after   10 cycles
 SCF Done:  E(RM062X) =  -14390.8044768     A.U. after    9 cycles
 SCF Done:  E(RM062X) =  -14390.8044769     A.U. after    8 cycles
 SCF Done:  E(RM062X) =  -14390.8044769     A.U. after    7 cycles
 Optimization completed.
    -- Stationary point found.
 Normal termination of Gaussian 16 at Thu Jan  2 15:26:20 2020.

 ------------------------------------------------------------------
 #P Geom=AllCheck Guess=TCheck SCRF=Check GenChk RM062X/DGDZVP Freq
 ------------------------------------------------------------------

 Structure from the checkpoint file:  "06_p_b.chk"
 ----------------------
 pyridone_1_acetic_acid
 ----------------------
 Charge =  1 Multiplicity = 1

                         Standard orientation:
 ---------------------------------------------------------------------
 Center     Atomic      Atomic             Coordinates (Angstroms)
 Number     Number       Type             X           Y           Z
 ---------------------------------------------------------------------
      1          6           0       -1.241946   -0.174074   -0.238661
      2          6           0       -1.205039    1.086487   -0.719422
      3          7           0       -0.000033    1.736784   -0.969515
      4          6           0        1.205029    1.086594   -0.719388
      5          6           0        1.242014   -0.173972   -0.238650
      6          6           0        0.000062   -0.920706    0.083306
      7          8           0        0.000108   -2.034556    0.561844
      8         53           0       -3.059157   -1.148239    0.057402
      9         53           0        3.059300   -1.148003    0.057421
     10          6           0       -0.000119    3.178111   -1.131203
     11          6           0       -0.000304    3.681199    0.287956
     12          8           0       -1.140467    3.809397    0.864343
     13          8           0        1.139786    3.809785    0.864410
     14          1           0       -0.898190    3.517325   -1.648780
     15          1           0        0.898087    3.517432   -1.648474
     16          1           0       -2.101486    1.647452   -0.966170
     17          1           0        2.101430    1.647664   -0.966056
     18          1           0        1.152748    3.977681    1.831044
     19          1           0       -1.153538    3.976948    1.831036
 ---------------------------------------------------------------------

 SCF Done:  E(RM062X) =  -14390.8044769     A.U. after    1 cycles

 The electronic state is 1-A.
 Alpha  occ. eigenvalues -- ********************-177.95704-177.95703-167.38835
 Alpha  occ. eigenvalues -- -167.38833-167.38661-167.38661-167.38654-167.38654
 Alpha  occ. eigenvalues --  -36.53532 -36.53532 -32.05389 -32.05383 -32.04862
 Alpha  occ. eigenvalues --  -32.04861 -32.04842 -32.04840 -23.61630 -23.61629
 Alpha  occ. eigenvalues --  -23.61493 -23.61493 -23.61474 -23.61474 -23.61049
 Alpha  occ. eigenvalues --  -23.61049 -23.61049 -23.61049 -19.95980 -19.95978
 Alpha  occ. eigenvalues --  -19.73661 -15.00542 -10.99732 -10.82607 -10.78164
 Alpha  occ. eigenvalues --  -10.76799 -10.76797 -10.74232 -10.74230  -6.72164
 Alpha  occ. eigenvalues --   -6.72163  -5.11692  -5.11692  -5.10252  -5.10252
 Alpha  occ. eigenvalues --   -5.10202  -5.10201  -2.29225  -2.29225  -2.28632
 Alpha  occ. eigenvalues --   -2.28632  -2.28598  -2.28598  -2.27327  -2.27326
 Alpha  occ. eigenvalues --   -2.27326  -2.27326  -1.54847  -1.46543  -1.29497
 Alpha  occ. eigenvalues --   -1.28482  -1.12432  -1.04965  -1.04816  -0.98507
 Alpha  occ. eigenvalues --   -0.97701  -0.91659  -0.86655  -0.86222  -0.84467
 Alpha  occ. eigenvalues --   -0.82489  -0.80760  -0.76746  -0.75013  -0.74772
 Alpha  occ. eigenvalues --   -0.73202  -0.70441  -0.69497  -0.69176  -0.65979
 Alpha  occ. eigenvalues --   -0.65206  -0.62120  -0.59007  -0.57111  -0.53843
 Alpha  occ. eigenvalues --   -0.52161  -0.46726  -0.45566  -0.43069  -0.42354
 Alpha  occ. eigenvalues --   -0.41819  -0.39908
 Alpha virt. eigenvalues --   -0.24482  -0.15784  -0.13871  -0.13419  -0.11737
 Alpha virt. eigenvalues --   -0.09300  -0.09128  -0.03474  -0.02865  -0.01025
 Alpha virt. eigenvalues --    0.00672   0.01752   0.02807   0.02958   0.06308

 Mulliken charges:
               1
     1  C   -0.205178
     2  C   -0.124640
     3  N   -0.251151
     4  C   -0.124639
     5  C   -0.205170
     6  C    0.511684
     7  O   -0.322037
     8  I    0.085832
     9  I    0.085833
    10  C   -0.600491
    11  C    0.589809
    12  O   -0.421638
    13  O   -0.421636
    14  H    0.380350
    15  H    0.380318
    16  H    0.308893
    17  H    0.308881
    18  H    0.512490
    19  H    0.512490
 Sum of Mulliken charges =   1.00000

 Dipole moment (field-independent basis, Debye):
    X=             -0.0015    Y=             19.9391    Z=              2.3337  Tot=             20.0752
 Quadrupole moment (field-independent basis, Debye-Ang):
   XX=           -103.0023   YY=            -50.0487   ZZ=           -102.5685
   XY=             -0.0037   XZ=             -0.0021   YZ=             16.1342

  Exact polarizability: 187.643  -0.001 200.086   0.000 -11.103  91.880
 Approx polarizability: 215.671  -0.002 258.827   0.001 -27.368 133.562

                      1                      2                      3
                      A                      A                      A
 Frequencies --     34.3700                42.0354                50.5411
 Red. masses --      7.0751                 7.2530                16.6546
 Frc consts  --      0.0049                 0.0076                 0.0251
 IR Inten    --      5.7791                20.2432                 2.4741

                      4                      5                      6
                      A                      A                      A
 Frequencies --     52.1457                97.1630               167.6353
 Red. masses --      8.5412                26.0648                 6.1305
 Frc consts  --      0.0137                 0.1450                 0.1015
 IR Inten    --      1.7599                 0.4405                 0.5115

                      7                      8                      9
                      A                      A                      A
 Frequencies --    169.1713               213.8161               223.4237
 Red. masses --      7.5372                 5.0797                14.6013
 Frc consts  --      0.1271                 0.1368                 0.4294
 IR Inten    --     31.5702                 0.0683                11.6214

                     10                     11                     12
                      A                      A                      A
 Frequencies --    250.7112               283.9042               361.1035
 Red. masses --     14.2249                 6.8839                 6.6929
 Frc consts  --      0.5268                 0.3269                 0.5142
 IR Inten    --      5.8656                13.9028                 4.3950

                     13                     14                     15
                      A                      A                      A
 Frequencies --    439.3225               459.1677               463.8843
 Red. masses --      4.3933                 2.1406                 4.8395
 Frc consts  --      0.4996                 0.2659                 0.6136
 IR Inten    --      0.8365                 2.1347                10.8407

                     16                     17                     18
                      A                      A                      A
 Frequencies --    492.2085               515.1211               555.6691
 Red. masses --      4.0372                 1.0765                 3.1124
 Frc consts  --      0.5763                 0.1683                 0.5662
 IR Inten    --     16.1868                 0.2885               110.0414

                     19                     20                     21
                      A                      A                      A
 Frequencies --    605.4095               642.3813               737.0910
 Red. masses --      5.5073                 1.4396                 7.0423
 Frc consts  --      1.1893                 0.3500                 2.2543
 IR Inten    --      8.1844               343.7727                56.1827

                     22                     23                     24
                      A                      A                      A
 Frequencies --    737.3630               772.5316               823.7308
 Red. masses --      9.1697                11.2608                 5.5709
 Frc consts  --      2.9374                 3.9596                 2.2271
 IR Inten    --     53.2407                15.9631                 3.2482

                     25                     26                     27
                      A                      A                      A
 Frequencies --    857.7672               886.4204               896.5489
 Red. masses --      1.3795                 2.1178                 2.3028
 Frc consts  --      0.5980                 0.9804                 1.0906
 IR Inten    --      3.5129                69.2641                20.3018

                     28                     29                     30
                      A                      A                      A
 Frequencies --    916.6430              1015.8215              1085.6971
 Red. masses --      4.4532                 1.8244                 4.3279
 Frc consts  --      2.2046                 1.1092                 3.0057
 IR Inten    --      9.4188                 4.0785                12.1102

                     31                     32                     33
                      A                      A                      A
 Frequencies --   1105.6354              1161.2731              1191.5167
 Red. masses --      1.1451                 2.8410                 1.9557
 Frc consts  --      0.8248                 2.2573                 1.6359
 IR Inten    --    228.0968                19.6565               200.2372

                     34                     35                     36
                      A                      A                      A
 Frequencies --   1233.8947              1241.4018              1373.6703
 Red. masses --      1.2098                 2.9048                 1.3481
 Frc consts  --      1.0853                 2.6375                 1.4988
 IR Inten    --     27.8159               218.7798                 0.9091

                     37                     38                     39
                      A                      A                      A
 Frequencies --   1389.6574              1400.4276              1457.6772
 Red. masses --      1.6190                 1.7599                 4.5077
 Frc consts  --      1.8421                 2.0336                 5.6433
 IR Inten    --      3.5649                 1.9015                33.1888

                     40                     41                     42
                      A                      A                      A
 Frequencies --   1484.9178              1555.6546              1645.2151
 Red. masses --      1.0947                 3.7270                 7.9882
 Frc consts  --      1.4222                 5.3142                12.7392
 IR Inten    --     23.6431               266.4316                 0.1304

                     43                     44                     45
                      A                      A                      A
 Frequencies --   1674.6249              1694.5554              1810.2710
 Red. masses --      8.3935                 6.2883                13.2032
 Frc consts  --     13.8684                10.6388                25.4927
 IR Inten    --    411.2075                72.3431               242.4662

                     46                     47                     48
                      A                      A                      A
 Frequencies --   3134.1536              3223.5924              3242.6330
 Red. masses --      1.0597                 1.1144                 1.0943
 Frc consts  --      6.1333                 6.8232                 6.7790
 IR Inten    --      2.8195                 5.5832                 1.9287

                     49                     50                     51
                      A                      A                      A
 Frequencies --   3244.6732              3671.4950              3685.9724
 Red. masses --      1.0962                 1.0685                 1.0671
 Frc consts  --      6.7994                 8.4862                 8.5417
 IR Inten    --      1.6238                61.5657               543.6563

 - Thermochemistry -
 -------------------
 Temperature     0.001 Kelvin.  Pressure   1.00000 Atm.
 Atom     1 has atomic number  6 and mass  12.00000

 Molecular mass:   405.83557 amu.
 Principal axes and moments of inertia in atomic units:
                           1         2         3
     Eigenvalues --  4889.090819246.19835**********
           X            1.00000  -0.00001  -0.00000
           Y            0.00001   1.00000   0.00162
           Z            0.00000  -0.00162   1.00000
 This molecule is an asymmetric top.
 Rotational symmetry number  1.
 Warning -- assumption of classical behavior for rotation
           may cause significant error
 Rotational temperatures (Kelvin)      0.01772     0.00937     0.00641
 Rotational constants (GHZ):           0.36914     0.19519     0.13356
 Zero-point vibrational energy     337775.8 (Joules/Mol)
                                   80.73037 (Kcal/Mol)
 Vibrational temperatures:     49.45    60.48    72.72    75.03   139.80
          (Kelvin)            241.19   243.40   307.63   321.46   360.72
                              408.47   519.55   632.09   660.64   667.43
                              708.18   741.14   799.48   871.05   924.24
                             1060.51  1060.90  1111.50  1185.16  1234.14
                             1275.36  1289.93  1318.84  1461.54  1562.08
                             1590.76  1670.81  1714.33  1775.30  1786.10
                             1976.41  1999.41  2014.90  2097.27  2136.47
                             2238.24  2367.10  2409.41  2438.09  2604.58
                             4509.35  4638.03  4665.43  4668.36  5282.46
                             5303.29

 Zero-point correction=                           0.128652 (Hartree/Particle)
 Thermal correction to Energy=                    0.128652
 Thermal correction to Enthalpy=                  0.128652
 Thermal correction to Gibbs Free Energy=         0.128652
 Sum of electronic and zero-point Energies=         -14390.675825
 Sum of electronic and thermal Energies=            -14390.675825
 Sum of electronic and thermal Enthalpies=          -14390.675825
 Sum of electronic and thermal Free Energies=       -14390.675825

                     E (Thermal)             CV                S
                      KCal/Mol        Cal/Mol-Kelvin    Cal/Mol-Kelvin
 Total                   80.730              5.962            -21.537
 Electronic               0.000              0.000              0.000
 Translational            0.000              2.981            -18.730
 Rotational               0.000              2.981             -2.807
 Vibrational             80.730              0.000              0.000

 Optimization completed.
    -- Stationary point found.
 Normal termination of Gaussian 16 at Thu Jan  2 15:27:47 2020.
