 Gaussian 16, Revision A.03,
 Gaussian 16:  ES64L-G16RevA.03 25-Dec-2016

 -------------------------------------------------------------------
 #p opt freq m062x/6-311++g(d,p) geom=connectivity temperature=0.001
 -------------------------------------------------------------------

 ------------------
 methylbenzoic acid
 ------------------
 Symbolic Z-matrix:
 Charge =  0 Multiplicity = 1

 SCF Done:  E(RM062X) =  -460.080540709     A.U. after   15 cycles
 SCF Done:  E(RM062X) =  -460.080582781     A.U. after   12 cycles
 SCF Done:  E(RM062X) =  -460.080575007     A.U. after   12 cycles
 SCF Done:  E(RM062X) =  -460.080573125     A.U. after   11 cycles
 SCF Done:  E(RM062X) =  -460.080587366     A.U. after   11 cycles
 SCF Done:  E(RM062X) =  -460.080588643     A.U. after    9 cycles
 SCF Done:  E(RM062X) =  -460.080589097     A.U. after    9 cycles
 SCF Done:  E(RM062X) =  -460.080589934     A.U. after   10 cycles
 SCF Done:  E(RM062X) =  -460.080591241     A.U. after   11 cycles
 SCF Done:  E(RM062X) =  -460.080630685     A.U. after   13 cycles
 SCF Done:  E(RM062X) =  -460.080644539     A.U. after   12 cycles
 SCF Done:  E(RM062X) =  -460.080640717     A.U. after   13 cycles
 SCF Done:  E(RM062X) =  -460.080648128     A.U. after   12 cycles
 SCF Done:  E(RM062X) =  -460.080643829     A.U. after   11 cycles
 SCF Done:  E(RM062X) =  -460.080649035     A.U. after   12 cycles
 SCF Done:  E(RM062X) =  -460.080649006     A.U. after   10 cycles
 SCF Done:  E(RM062X) =  -460.080649450     A.U. after   10 cycles
 SCF Done:  E(RM062X) =  -460.080649515     A.U. after   10 cycles
 SCF Done:  E(RM062X) =  -460.080649531     A.U. after    9 cycles
 Optimization completed.
    -- Stationary point found.
 Normal termination of Gaussian 16 at Mon Oct 14 11:51:16 2019.

 ----------------------------------------------------------------------
 #P Geom=AllCheck Guess=TCheck SCRF=Check GenChk RM062X/6-311++G(d,p) F
 req
 ----------------------------------------------------------------------

 Structure from the checkpoint file:  "07.chk"
 ------------------
 methylbenzoic acid
 ------------------
 Charge =  0 Multiplicity = 1

                         Standard orientation:
 ---------------------------------------------------------------------
 Center     Atomic      Atomic             Coordinates (Angstroms)
 Number     Number       Type             X           Y           Z
 ---------------------------------------------------------------------
      1          6           0       -0.318100    1.469793    0.001012
      2          6           0        1.003328    1.902753   -0.000148
      3          6           0        2.040638    0.978659   -0.002033
      4          6           0        1.787096   -0.396780   -0.002111
      5          6           0        0.463388   -0.821325   -0.001727
      6          6           0       -0.582294    0.102674    0.000096
      7          6           0       -1.972785   -0.426161   -0.000069
      8          8           0       -2.265350   -1.592209   -0.001710
      9          8           0       -2.905718    0.547135    0.001981
     10          6           0        2.926488   -1.382530    0.002644
     11          1           0       -1.136355    2.177847    0.001818
     12          1           0        1.224415    2.963303   -0.000474
     13          1           0        3.068972    1.326571   -0.003805
     14          1           0        0.219487   -1.877950   -0.003229
     15          1           0       -3.767685    0.111010    0.001827
     16          1           0        3.512029   -1.293431    0.920876
     17          1           0        3.600685   -1.202354   -0.837586
     18          1           0        2.560447   -2.406908   -0.067577
 ---------------------------------------------------------------------

 SCF Done:  E(RM062X) =  -460.080649531     A.U. after    1 cycles

 The electronic state is 1-A.
 Alpha  occ. eigenvalues --  -19.67530 -19.62033 -10.68478 -10.56507 -10.56340
 Alpha  occ. eigenvalues --  -10.55698 -10.55624 -10.55483 -10.55390 -10.54125
 Alpha  occ. eigenvalues --   -1.24633  -1.14908  -0.98159  -0.89116  -0.86725
 Alpha  occ. eigenvalues --   -0.79177  -0.75850  -0.68951  -0.67586  -0.60830
 Alpha  occ. eigenvalues --   -0.58464  -0.56241  -0.54482  -0.53913  -0.51980
 Alpha  occ. eigenvalues --   -0.49870  -0.49554  -0.47706  -0.45908  -0.43718
 Alpha  occ. eigenvalues --   -0.42405  -0.41103  -0.40470  -0.36444  -0.32107
 Alpha  occ. eigenvalues --   -0.31059
 Alpha virt. eigenvalues --   -0.02622  -0.00472   0.00334   0.01035   0.01128
 Alpha virt. eigenvalues --    0.02388   0.03221   0.03307   0.04247   0.05680
 Alpha virt. eigenvalues --    0.05777   0.07088   0.07824   0.08081   0.08737

 Mulliken charges:
               1
     1  C   -0.957853
     2  C    0.248600
     3  C   -0.478250
     4  C    1.238944
     5  C   -1.833422
     6  C    0.896260
     7  C    0.262218
     8  O   -0.294189
     9  O   -0.203891
    10  C   -0.530889
    11  H    0.216607
    12  H    0.216766
    13  H    0.186688
    14  H    0.181624
    15  H    0.310816
    16  H    0.177322
    17  H    0.168185
    18  H    0.194462
 Sum of Mulliken charges =   0.00000

 Dipole moment (field-independent basis, Debye):
    X=              1.3825    Y=              1.4937    Z=              0.0104  Tot=              2.0353
 Quadrupole moment (field-independent basis, Debye-Ang):
   XX=            -48.3177   YY=            -59.0901   ZZ=            -61.4656
   XY=             -3.8972   XZ=              0.0096   YZ=             -0.0150

  Exact polarizability: 125.447   0.612 107.011   0.072  -0.053  56.384
 Approx polarizability: 144.115   3.394 142.654   0.061  -0.040  74.379

                      1                      2                      3
                      A                      A                      A
 Frequencies --     42.5225                60.2084               150.9499
 Red. masses --      1.0702                 6.1818                 4.5153
 Frc consts  --      0.0011                 0.0132                 0.0606
 IR Inten    --      0.3433                 1.1956                 1.3634

                      4                      5                      6
                      A                      A                      A
 Frequencies --    187.7676               218.9847               338.8463
 Red. masses --      4.9032                 2.9632                 3.4651
 Frc consts  --      0.1019                 0.0837                 0.2344
 IR Inten    --      1.8761                 1.5250                 1.5928

                      7                      8                      9
                      A                      A                      A
 Frequencies --    392.1609               427.3432               483.7605
 Red. masses --      6.2152                 2.9934                 2.5886
 Frc consts  --      0.5632                 0.3221                 0.3569
 IR Inten    --      3.0938                 7.1403                 2.1604

                     10                     11                     12
                      A                      A                      A
 Frequencies --    495.6134               550.0533               577.8466
 Red. masses --      5.2834                 5.5336                 1.3249
 Frc consts  --      0.7646                 0.9864                 0.2606
 IR Inten    --      4.7327                 0.8536                98.3561

                     13                     14                     15
                      A                      A                      A
 Frequencies --    651.2023               700.6598               742.5725
 Red. masses --      5.0070                 2.6221                 4.8054
 Frc consts  --      1.2510                 0.7584                 1.5612
 IR Inten    --     47.3000                 1.3362                26.3126

                     16                     17                     18
                      A                      A                      A
 Frequencies --    770.3806               839.6672               911.8385
 Red. masses --      2.0699                 2.1391                 3.9320
 Frc consts  --      0.7238                 0.8886                 1.9262
 IR Inten    --     98.9666                 0.9449                 3.8038

                     19                     20                     21
                      A                      A                      A
 Frequencies --    934.6916               965.5353              1012.3717
 Red. masses --      1.3106                 1.4238                 1.8171
 Frc consts  --      0.6746                 0.7820                 1.0973
 IR Inten    --      1.6368                 1.9665                 6.2492

                     22                     23                     24
                      A                      A                      A
 Frequencies --   1017.1602              1023.0896              1071.7028
 Red. masses --      1.3372                 3.3233                 1.5553
 Frc consts  --      0.8151                 2.0495                 1.0525
 IR Inten    --      0.0167                 1.1131                 4.6294

                     25                     26                     27
                      A                      A                      A
 Frequencies --   1128.0058              1139.6025              1191.4462
 Red. masses --      1.5360                 2.0626                 1.1634
 Frc consts  --      1.1515                 1.5782                 0.9730
 IR Inten    --      7.5773                34.5769                48.2209

                     28                     29                     30
                      A                      A                      A
 Frequencies --   1207.4500              1260.2033              1315.4034
 Red. masses --      2.0038                 2.2675                 1.8955
 Frc consts  --      1.7212                 2.1217                 1.9324
 IR Inten    --    256.0665                29.2176                 6.1902

                     31                     32                     33
                      A                      A                      A
 Frequencies --   1344.6263              1390.3311              1419.7692
 Red. masses --      2.6140                 2.5725                 1.2900
 Frc consts  --      2.7846                 2.9298                 1.5320
 IR Inten    --      5.3875               141.6418                 6.8235

                     34                     35                     36
                      A                      A                      A
 Frequencies --   1474.6077              1493.3811              1511.1444
 Red. masses --      1.8143                 1.0424                 1.6504
 Frc consts  --      2.3244                 1.3697                 2.2206
 IR Inten    --     42.5086                 8.8184                29.5910

                     37                     38                     39
                      A                      A                      A
 Frequencies --   1532.9465              1660.0638              1685.0116
 Red. masses --      2.3522                 6.1584                 6.3705
 Frc consts  --      3.2567                 9.9993                10.6569
 IR Inten    --      2.5026                 5.8712                12.0655

                     40                     41                     42
                      A                      A                      A
 Frequencies --   1855.4852              3065.4919              3126.9811
 Red. masses --     10.4300                 1.0369                 1.1012
 Frc consts  --     21.1567                 5.7408                 6.3439
 IR Inten    --    404.3891                17.5310                 8.5145

                     43                     44                     45
                      A                      A                      A
 Frequencies --   3154.5431              3191.0600              3212.7711
 Red. masses --      1.1019                 1.0892                 1.0916
 Frc consts  --      6.4607                 6.5347                 6.6385
 IR Inten    --      8.8113                 5.3070                 1.1849

                     46                     47                     48
                      A                      A                      A
 Frequencies --   3216.8336              3239.7873              3844.9355
 Red. masses --      1.0926                 1.0947                 1.0649
 Frc consts  --      6.6614                 6.7700                 9.2755
 IR Inten    --      7.2961                 1.3276               130.3051

 - Thermochemistry -
 -------------------
 Temperature     0.001 Kelvin.  Pressure   1.00000 Atm.
 Atom     1 has atomic number  6 and mass  12.00000

 Molecular mass:   136.05243 amu.
 Principal axes and moments of inertia in atomic units:
                           1         2         3
     Eigenvalues --   680.717701910.075942579.60431
           X            0.99953  -0.03069   0.00005
           Y            0.03069   0.99953  -0.00010
           Z           -0.00004   0.00010   1.00000
 This molecule is an asymmetric top.
 Rotational symmetry number  1.
 Warning -- assumption of classical behavior for rotation
           may cause significant error
 Rotational temperatures (Kelvin)      0.12724     0.04535     0.03358
 Rotational constants (GHZ):           2.65123     0.94485     0.69962
 Zero-point vibrational energy     378192.3 (Joules/Mol)
                                   90.39012 (Kcal/Mol)
 Vibrational temperatures:     61.18    86.63   217.18   270.16   315.07
          (Kelvin)            487.52   564.23   614.85   696.02   713.08
                              791.40   831.39   936.93  1008.09  1068.40
                             1108.41  1208.09  1311.93  1344.81  1389.19
                             1456.58  1463.47  1472.00  1541.94  1622.95
                             1639.63  1714.23  1737.25  1813.15  1892.57
                             1934.62  2000.38  2042.73  2121.63  2148.64
                             2174.20  2205.57  2388.46  2424.36  2669.63
                             4410.56  4499.03  4538.68  4591.22  4622.46
                             4628.31  4661.33  5532.00

 Zero-point correction=                           0.144046 (Hartree/Particle)
 Thermal correction to Energy=                    0.144046
 Thermal correction to Enthalpy=                  0.144046
 Thermal correction to Gibbs Free Energy=         0.144046
 Sum of electronic and zero-point Energies=           -459.936604
 Sum of electronic and thermal Energies=              -459.936604
 Sum of electronic and thermal Enthalpies=            -459.936604
 Sum of electronic and thermal Free Energies=         -459.936604

                     E (Thermal)             CV                S
                      KCal/Mol        Cal/Mol-Kelvin    Cal/Mol-Kelvin
 Total                   90.390              5.962            -29.966
 Electronic               0.000              0.000              0.000
 Translational            0.000              2.981            -21.988
 Rotational               0.000              2.981             -7.978
 Vibrational             90.390              0.000              0.000

 Optimization completed.
    -- Stationary point found.
 Normal termination of Gaussian 16 at Mon Oct 14 11:53:14 2019.
