 Gaussian 16, Revision A.03,
 Gaussian 16:  ES64L-G16RevA.03 25-Dec-2016

 -------------------------------------------------------------------
 #p opt freq m062x/6-311++g(d,p) geom=connectivity temperature=0.001
 -------------------------------------------------------------------

 -----------------------
 methylbenzoic acid plus
 -----------------------
 Symbolic Z-matrix:
 Charge =  1 Multiplicity = 1

 SCF Done:  E(RM062X) =  -460.385856338     A.U. after   15 cycles
 SCF Done:  E(RM062X) =  -460.397426713     A.U. after   13 cycles
 SCF Done:  E(RM062X) =  -460.398822407     A.U. after   14 cycles
 SCF Done:  E(RM062X) =  -460.398972239     A.U. after   12 cycles
 SCF Done:  E(RM062X) =  -460.399012702     A.U. after   12 cycles
 SCF Done:  E(RM062X) =  -460.399032928     A.U. after   11 cycles
 SCF Done:  E(RM062X) =  -460.399052077     A.U. after   11 cycles
 SCF Done:  E(RM062X) =  -460.399079377     A.U. after   12 cycles
 SCF Done:  E(RM062X) =  -460.399111895     A.U. after   12 cycles
 SCF Done:  E(RM062X) =  -460.399160935     A.U. after   13 cycles
 SCF Done:  E(RM062X) =  -460.399184956     A.U. after   11 cycles
 SCF Done:  E(RM062X) =  -460.399194754     A.U. after   10 cycles
 SCF Done:  E(RM062X) =  -460.399199494     A.U. after   11 cycles
 SCF Done:  E(RM062X) =  -460.399202485     A.U. after   10 cycles
 SCF Done:  E(RM062X) =  -460.399207792     A.U. after   11 cycles
 SCF Done:  E(RM062X) =  -460.399212048     A.U. after   11 cycles
 SCF Done:  E(RM062X) =  -460.399214062     A.U. after   11 cycles
 SCF Done:  E(RM062X) =  -460.399214446     A.U. after   10 cycles
 SCF Done:  E(RM062X) =  -460.399214473     A.U. after    9 cycles
 Optimization completed.
    -- Stationary point found.
 Normal termination of Gaussian 16 at Mon Oct 14 11:50:48 2019.

 ----------------------------------------------------------------------
 #P Geom=AllCheck Guess=TCheck SCRF=Check GenChk RM062X/6-311++G(d,p) F
 req
 ----------------------------------------------------------------------

 Structure from the checkpoint file:  "07_p.chk"
 -----------------------
 methylbenzoic acid plus
 -----------------------
 Charge =  1 Multiplicity = 1

                         Standard orientation:
 ---------------------------------------------------------------------
 Center     Atomic      Atomic             Coordinates (Angstroms)
 Number     Number       Type             X           Y           Z
 ---------------------------------------------------------------------
      1          6           0       -0.261622    1.518926   -0.000128
      2          6           0        1.062396    1.913878   -0.000128
      3          6           0        2.073029    0.954713    0.000053
      4          6           0        1.803382   -0.423310    0.000126
      5          6           0        0.477855   -0.822114    0.000121
      6          6           0       -0.550447    0.142459   -0.000006
      7          6           0       -1.909646   -0.284858   -0.000026
      8          8           0       -2.170202   -1.553396   -0.000291
      9          8           0       -2.849042    0.606607    0.000308
     10          6           0        2.930289   -1.418389    0.000016
     11          1           0       -1.060368    2.249346   -0.000252
     12          1           0        1.314132    2.966464   -0.000234
     13          1           0        3.108419    1.280956    0.000056
     14          1           0        0.228597   -1.876627    0.000292
     15          1           0       -3.760230    0.278024   -0.000079
     16          1           0        3.561087   -1.281511    0.880537
     17          1           0        3.558951   -1.283576   -0.882375
     18          1           0        2.557629   -2.441921    0.001626
     19          1           0       -3.105682   -1.804680    0.000120
 ---------------------------------------------------------------------

 SCF Done:  E(RM062X) =  -460.399214473     A.U. after    1 cycles

 The electronic state is 1-A.
 Alpha  occ. eigenvalues --  -19.90770 -19.90749 -10.92836 -10.73583 -10.72022
 Alpha  occ. eigenvalues --  -10.71701 -10.70986 -10.70794 -10.69973 -10.65909
 Alpha  occ. eigenvalues --   -1.49918  -1.41314  -1.14476  -1.07087  -1.02607
 Alpha  occ. eigenvalues --   -0.97564  -0.94286  -0.91564  -0.86820  -0.83150
 Alpha  occ. eigenvalues --   -0.79641  -0.77978  -0.74007  -0.71249  -0.69495
 Alpha  occ. eigenvalues --   -0.68339  -0.65838  -0.65060  -0.62980  -0.62793
 Alpha  occ. eigenvalues --   -0.58935  -0.58273  -0.56407  -0.55603  -0.48130
 Alpha  occ. eigenvalues --   -0.45935
 Alpha virt. eigenvalues --   -0.23165  -0.16930  -0.12999  -0.11128  -0.10610
 Alpha virt. eigenvalues --   -0.09732  -0.08581  -0.08343  -0.08173  -0.06710
 Alpha virt. eigenvalues --   -0.05584  -0.05254  -0.04822  -0.03973  -0.03027

 Mulliken charges:
               1
     1  C   -0.957114
     2  C   -0.021749
     3  C   -0.237993
     4  C    0.580758
     5  C   -1.156804
     6  C    0.518266
     7  C    0.770134
     8  O   -0.081248
     9  O   -0.067991
    10  C   -0.573590
    11  H    0.242575
    12  H    0.259525
    13  H    0.252854
    14  H    0.213933
    15  H    0.325016
    16  H    0.200593
    17  H    0.200870
    18  H    0.201632
    19  H    0.330334
 Sum of Mulliken charges =   1.00000

 Dipole moment (field-independent basis, Debye):
    X=             -6.0697    Y=             -1.1731    Z=             -0.0003  Tot=              6.1820
 Quadrupole moment (field-independent basis, Debye-Ang):
   XX=             -7.3781   YY=            -44.0774   ZZ=            -59.4247
   XY=              7.6967   XZ=             -0.0001   YZ=             -0.0026

  Exact polarizability: 141.117   4.901 102.602  -0.002  -0.000  51.966
 Approx polarizability: 167.627   9.192 135.457  -0.001   0.000  69.223

                      1                      2                      3
                      A                      A                      A
 Frequencies --     27.4545                38.1527               134.5800
 Red. masses --      1.0894                 6.1688                 4.1839
 Frc consts  --      0.0005                 0.0053                 0.0446
 IR Inten    --      0.6230                 0.0015                11.6201

                      4                      5                      6
                      A                      A                      A
 Frequencies --    192.1860               205.3239               312.4658
 Red. masses --      4.2382                 2.5557                 1.1109
 Frc consts  --      0.0922                 0.0635                 0.0639
 IR Inten    --      3.9242                 1.3719                 0.7621

                      7                      8                      9
                      A                      A                      A
 Frequencies --    345.9772               399.2325               406.5305
 Red. masses --      3.2683                 6.2251                 2.5697
 Frc consts  --      0.2305                 0.5846                 0.2502
 IR Inten    --      1.5383                 0.5574                23.0921

                     10                     11                     12
                      A                      A                      A
 Frequencies --    460.1244               494.5627               497.1057
 Red. masses --      1.9588                 1.5806                 5.1229
 Frc consts  --      0.2443                 0.2278                 0.7459
 IR Inten    --     51.4189               209.7073                 6.2466

                     13                     14                     15
                      A                      A                      A
 Frequencies --    545.0650               639.0993               655.3971
 Red. masses --      5.4627                 4.1736                 2.6483
 Frc consts  --      0.9562                 1.0044                 0.6702
 IR Inten    --      3.3708                41.0979                 7.3723

                     16                     17                     18
                      A                      A                      A
 Frequencies --    740.4656               752.3335               821.7064
 Red. masses --      4.6384                 4.0701                 1.6241
 Frc consts  --      1.4984                 1.3573                 0.6461
 IR Inten    --      5.4135                53.4027                15.2733

                     19                     20                     21
                      A                      A                      A
 Frequencies --    904.1901               928.3761               977.3940
 Red. masses --      1.3487                 3.4916                 1.2998
 Frc consts  --      0.6497                 1.7731                 0.7316
 IR Inten    --      2.4726                 2.7885                 0.4754

                     22                     23                     24
                      A                      A                      A
 Frequencies --   1011.7334              1026.0752              1032.9288
 Red. masses --      4.2318                 1.6689                 1.3487
 Frc consts  --      2.5522                 1.0352                 0.8478
 IR Inten    --     16.3147                 2.6750                 0.6252

                     25                     26                     27
                      A                      A                      A
 Frequencies --   1072.4361              1126.1438              1138.7453
 Red. masses --      1.5598                 1.1118                 1.5696
 Frc consts  --      1.0570                 0.8307                 1.1992
 IR Inten    --      4.5842               188.6543                27.8952

                     28                     29                     30
                      A                      A                      A
 Frequencies --   1155.3139              1189.7461              1212.0262
 Red. masses --      2.4311                 1.4170                 1.2304
 Frc consts  --      1.9118                 1.1817                 1.0649
 IR Inten    --    117.7126               371.7348                30.9622

                     31                     32                     33
                      A                      A                      A
 Frequencies --   1266.8161              1336.7366              1377.9651
 Red. masses --      2.9166                 1.4272                 4.4109
 Frc consts  --      2.7578                 1.5025                 4.9346
 IR Inten    --     73.1162                 2.6123                38.3706

                     34                     35                     36
                      A                      A                      A
 Frequencies --   1426.3174              1451.8079              1487.1943
 Red. masses --      1.2652                 2.2745                 1.0401
 Frc consts  --      1.5165                 2.8246                 1.3554
 IR Inten    --      3.1281                 5.6780                11.9368

                     37                     38                     39
                      A                      A                      A
 Frequencies --   1502.1437              1517.0077              1577.8840
 Red. masses --      1.3115                 2.2134                 7.6710
 Frc consts  --      1.7435                 3.0011                11.2526
 IR Inten    --      6.0795                77.1989               390.7639

                     40                     41                     42
                      A                      A                      A
 Frequencies --   1596.9931              1643.7952              1669.0537
 Red. masses --      4.0203                 5.6165                 5.8261
 Frc consts  --      6.0411                 8.9415                 9.5625
 IR Inten    --    749.7708                56.5716                26.9831

                     43                     44                     45
                      A                      A                      A
 Frequencies --   3075.9822              3142.6519              3167.4355
 Red. masses --      1.0368                 1.1016                 1.1030
 Frc consts  --      5.7798                 6.4103                 6.5200
 IR Inten    --      1.3297                 0.7791                 3.6910

                     46                     47                     48
                      A                      A                      A
 Frequencies --   3203.1198              3224.3632              3232.4269
 Red. masses --      1.0916                 1.0926                 1.0911
 Frc consts  --      6.5987                 6.6928                 6.7172
 IR Inten    --      0.0537                 1.8713                 1.4152

                     49                     50                     51
                      A                      A                      A
 Frequencies --   3244.4679              3801.0011              3814.8678
 Red. masses --      1.0978                 1.0683                 1.0666
 Frc consts  --      6.8087                 9.0939                 9.1459
 IR Inten    --      2.9104                45.5566               690.3846

 - Thermochemistry -
 -------------------
 Temperature     0.001 Kelvin.  Pressure   1.00000 Atm.
 Atom     1 has atomic number  6 and mass  12.00000

 Molecular mass:   137.06025 amu.
 Principal axes and moments of inertia in atomic units:
                           1         2         3
     Eigenvalues --   699.847471904.976802593.63901
           X            0.99985  -0.01715  -0.00000
           Y            0.01715   0.99985  -0.00001
           Z            0.00000   0.00001   1.00000
 This molecule is an asymmetric top.
 Rotational symmetry number  1.
 Warning -- assumption of classical behavior for rotation
           may cause significant error
 Rotational temperatures (Kelvin)      0.12376     0.04547     0.03339
 Rotational constants (GHZ):           2.57876     0.94738     0.69583
 Zero-point vibrational energy     407944.0 (Joules/Mol)
                                   97.50094 (Kcal/Mol)
 Vibrational temperatures:     39.50    54.89   193.63   276.51   295.42
          (Kelvin)            449.57   497.78   574.41   584.91   662.02
                              711.57   715.22   784.23   919.52   942.97
                             1065.36  1082.44  1182.25  1300.93  1335.73
                             1406.25  1455.66  1476.29  1486.15  1543.00
                             1620.27  1638.40  1662.24  1711.78  1743.84
                             1822.67  1923.27  1982.58  2052.15  2088.83
                             2139.74  2161.25  2182.64  2270.22  2297.72
                             2365.05  2401.40  4425.65  4521.58  4557.23
                             4608.57  4639.14  4650.74  4668.07  5468.79
                             5488.74

 Zero-point correction=                           0.155378 (Hartree/Particle)
 Thermal correction to Energy=                    0.155378
 Thermal correction to Enthalpy=                  0.155378
 Thermal correction to Gibbs Free Energy=         0.155378
 Sum of electronic and zero-point Energies=           -460.243837
 Sum of electronic and thermal Energies=              -460.243837
 Sum of electronic and thermal Enthalpies=            -460.243837
 Sum of electronic and thermal Free Energies=         -460.243837

                     E (Thermal)             CV                S
                      KCal/Mol        Cal/Mol-Kelvin    Cal/Mol-Kelvin
 Total                   97.501              5.962            -29.914
 Electronic               0.000              0.000              0.000
 Translational            0.000              2.981            -21.966
 Rotational               0.000              2.981             -7.948
 Vibrational             97.501              0.000              0.000

                           ! Non-Optimized Parameters !
 Normal termination of Gaussian 16 at Mon Oct 14 11:52:54 2019.
