 Gaussian 16, Revision A.03,
 Gaussian 16:  ES64L-G16RevA.03 25-Dec-2016

 -------------------------------------------------------------------
 #p opt freq m062x/6-311++g(d,p) geom=connectivity temperature=0.001
 -------------------------------------------------------------------

 -----------------------------
 2_methyl_pyridine_n_oxide.sdf
 -----------------------------
 Symbolic Z-matrix:
 Charge =  0 Multiplicity = 1

 SCF Done:  E(RM062X) =  -362.699595050     A.U. after   15 cycles
 SCF Done:  E(RM062X) =  -362.707623230     A.U. after   14 cycles
 SCF Done:  E(RM062X) =  -362.708446769     A.U. after   13 cycles
 SCF Done:  E(RM062X) =  -362.708686318     A.U. after   12 cycles
 SCF Done:  E(RM062X) =  -362.708773611     A.U. after   11 cycles
 SCF Done:  E(RM062X) =  -362.708811342     A.U. after   11 cycles
 SCF Done:  E(RM062X) =  -362.708831798     A.U. after   11 cycles
 SCF Done:  E(RM062X) =  -362.708832970     A.U. after   11 cycles
 Optimization completed.
    -- Stationary point found.
 Normal termination of Gaussian 16 at Mon Oct 14 09:06:40 2019.

 ----------------------------------------------------------------------
 #P Geom=AllCheck Guess=TCheck SCRF=Check GenChk RM062X/6-311++G(d,p) F
 req
 ----------------------------------------------------------------------

 Structure from the checkpoint file:  "08.chk"
 -----------------------------
 2_methyl_pyridine_n_oxide.sdf
 -----------------------------
 Charge =  0 Multiplicity = 1

                         Standard orientation:
 ---------------------------------------------------------------------
 Center     Atomic      Atomic             Coordinates (Angstroms)
 Number     Number       Type             X           Y           Z
 ---------------------------------------------------------------------
      1          6           0        1.951093    0.460929   -0.000021
      2          6           0        0.841336    1.277245    0.000041
      3          7           0       -0.420401    0.765710    0.000015
      4          6           0       -0.604466   -0.592707    0.000002
      5          6           0        0.501526   -1.428828   -0.000001
      6          6           0        1.792670   -0.920345   -0.000016
      7          6           0       -2.022685   -1.045037    0.000023
      8          8           0       -1.428881    1.544924   -0.000035
      9          1           0        2.931407    0.918943   -0.000013
     10          1           0        0.866506    2.357028    0.000064
     11          1           0        0.325455   -2.497401    0.000026
     12          1           0        2.649316   -1.580888   -0.000014
     13          1           0       -2.071154   -2.132858    0.000877
     14          1           0       -2.542486   -0.645107    0.873450
     15          1           0       -2.542026   -0.646624   -0.874384
 ---------------------------------------------------------------------

 SCF Done:  E(RM062X) =  -362.708832970     A.U. after    1 cycles

 The electronic state is 1-A.
 Alpha  occ. eigenvalues --  -19.59018 -14.90005 -10.60504 -10.59603 -10.57225
 Alpha  occ. eigenvalues --  -10.57134 -10.56866 -10.54402  -1.23640  -1.01629
 Alpha  occ. eigenvalues --   -0.91599  -0.89954  -0.81269  -0.75649  -0.71019
 Alpha  occ. eigenvalues --   -0.61263  -0.59805  -0.56505  -0.55769  -0.53143
 Alpha  occ. eigenvalues --   -0.50756  -0.47868  -0.47637  -0.45097  -0.44230
 Alpha  occ. eigenvalues --   -0.41853  -0.33372  -0.33001  -0.27456
 Alpha virt. eigenvalues --   -0.01669  -0.00786  -0.00183   0.00478   0.01330
 Alpha virt. eigenvalues --    0.03020   0.03522   0.04056   0.05232   0.06657
 Alpha virt. eigenvalues --    0.06688   0.07574   0.08576   0.09879   0.10926

 Mulliken charges:
               1
     1  C   -0.208367
     2  C   -0.047797
     3  N    0.022370
     4  C   -0.471638
     5  C    0.538516
     6  C   -0.259725
     7  C   -0.904454
     8  O   -0.142979
     9  H    0.220921
    10  H    0.246201
    11  H    0.220299
    12  H    0.224040
    13  H    0.158295
    14  H    0.202146
    15  H    0.202173
 Sum of Mulliken charges =  -0.00000

 Dipole moment (field-independent basis, Debye):
    X=              2.9353    Y=             -2.8755    Z=              0.0001  Tot=              4.1091
 Quadrupole moment (field-independent basis, Debye-Ang):
   XX=            -44.9024   YY=            -46.3580   ZZ=            -49.9468
   XY=              6.9688   XZ=             -0.0000   YZ=              0.0004

  Exact polarizability: 104.994  -6.309  90.723   0.002   0.000  47.398
 Approx polarizability: 136.103 -17.812 123.010   0.002   0.001  61.301

                      1                      2                      3
                      A                      A                      A
 Frequencies --    167.2724               201.7003               262.5030
 Red. masses --      3.2633                 1.1153                 3.4137
 Frc consts  --      0.0538                 0.0267                 0.1386
 IR Inten    --      5.5728                 1.1048                 0.0633

                      4                      5                      6
                      A                      A                      A
 Frequencies --    340.2181               446.2279               484.6203
 Red. masses --      2.9561                 3.0472                 5.5684
 Frc consts  --      0.2016                 0.3575                 0.7705
 IR Inten    --      7.0723                 4.0061                 7.3540

                      7                      8                      9
                      A                      A                      A
 Frequencies --    538.7114               571.2481               610.3155
 Red. masses --      3.8045                 6.0736                 6.5273
 Frc consts  --      0.6505                 1.1677                 1.4325
 IR Inten    --      0.2249                 5.2228                 0.5504

                     10                     11                     12
                      A                      A                      A
 Frequencies --    688.6008               777.4716               800.2480
 Red. masses --      3.5827                 1.3756                 4.5247
 Frc consts  --      1.0009                 0.4899                 1.7072
 IR Inten    --      5.9912                72.8652                 0.7183

                     13                     14                     15
                      A                      A                      A
 Frequencies --    868.3066               875.5511               951.1774
 Red. masses --      1.2791                 4.7454                 1.3152
 Frc consts  --      0.5682                 2.1433                 0.7011
 IR Inten    --      0.4235                29.6873                 0.6075

                     16                     17                     18
                      A                      A                      A
 Frequencies --    979.6766              1010.3029              1056.6466
 Red. masses --      1.2353                 1.5953                 1.4960
 Frc consts  --      0.6985                 0.9594                 0.9841
 IR Inten    --      0.6634                11.1368                 2.9505

                     19                     20                     21
                      A                      A                      A
 Frequencies --   1084.2610              1137.9830              1172.4843
 Red. masses --      1.9818                 1.5643                 1.1066
 Frc consts  --      1.3727                 1.1935                 0.8963
 IR Inten    --      6.9941                 7.4071                 1.1690

                     22                     23                     24
                      A                      A                      A
 Frequencies --   1248.9827              1254.2803              1317.4643
 Red. masses --      4.8724                 2.5837                 1.4419
 Frc consts  --      4.4782                 2.3949                 1.4746
 IR Inten    --     14.5104                22.7971                12.5848

                     25                     26                     27
                      A                      A                      A
 Frequencies --   1344.0383              1421.4570              1456.5596
 Red. masses --      5.0008                 1.3508                 1.4898
 Frc consts  --      5.3224                 1.6080                 1.8623
 IR Inten    --    207.0667                 5.0507                32.9583

                     28                     29                     30
                      A                      A                      A
 Frequencies --   1462.0481              1504.5246              1544.8934
 Red. masses --      1.0422                 1.5109                 2.9825
 Frc consts  --      1.3126                 2.0150                 4.1939
 IR Inten    --      9.3036                94.6611                33.1355

                     31                     32                     33
                      A                      A                      A
 Frequencies --   1627.1776              1696.7776              3072.1869
 Red. masses --      6.9177                 6.1389                 1.0356
 Frc consts  --     10.7915                10.4134                 5.7589
 IR Inten    --      2.6902                18.7119                 7.2163

                     34                     35                     36
                      A                      A                      A
 Frequencies --   3131.9542              3173.3081              3218.4888
 Red. masses --      1.0996                 1.1040                 1.0882
 Frc consts  --      6.3550                 6.5502                 6.6417
 IR Inten    --      2.4013                 6.5424                 0.8737

                     37                     38                     39
                      A                      A                      A
 Frequencies --   3228.8759              3240.8811              3267.4239
 Red. masses --      1.0916                 1.0977                 1.0957
 Frc consts  --      6.7051                 6.7928                 6.8921
 IR Inten    --      2.1959                 0.9472                 1.0897

 - Thermochemistry -
 -------------------
 Temperature     0.001 Kelvin.  Pressure   1.00000 Atm.
 Atom     1 has atomic number  6 and mass  12.00000

 Molecular mass:   109.05276 amu.
 Principal axes and moments of inertia in atomic units:
                           1         2         3
     Eigenvalues --   506.57750 787.612541283.19534
           X            0.99555   0.09423   0.00000
           Y           -0.09423   0.99555   0.00000
           Z           -0.00000  -0.00000   1.00000
 This molecule is an asymmetric top.
 Rotational symmetry number  1.
 Warning -- assumption of classical behavior for rotation
           may cause significant error
 Rotational temperatures (Kelvin)      0.17098     0.10997     0.06750
 Rotational constants (GHZ):           3.56262     2.29141     1.40644
 Zero-point vibrational energy     318427.1 (Joules/Mol)
                                   76.10590 (Kcal/Mol)
 Vibrational temperatures:    240.67   290.20   377.68   489.50   642.02
          (Kelvin)            697.26   775.09   821.90   878.11   990.74
                             1118.61  1151.38  1249.30  1259.72  1368.53
                             1409.54  1453.60  1520.28  1560.01  1637.30
                             1686.94  1797.01  1804.63  1895.54  1933.77
                             2045.16  2095.66  2103.56  2164.68  2222.76
                             2341.15  2441.28  4420.19  4506.18  4565.68
                             4630.69  4645.63  4662.91  4701.09

 Zero-point correction=                           0.121282 (Hartree/Particle)
 Thermal correction to Energy=                    0.121282
 Thermal correction to Enthalpy=                  0.121282
 Thermal correction to Gibbs Free Energy=         0.121283
 Sum of electronic and zero-point Energies=           -362.587551
 Sum of electronic and thermal Energies=              -362.587550
 Sum of electronic and thermal Enthalpies=            -362.587550
 Sum of electronic and thermal Free Energies=         -362.587550

                     E (Thermal)             CV                S
                      KCal/Mol        Cal/Mol-Kelvin    Cal/Mol-Kelvin
 Total                   76.106              5.962            -32.493
 Electronic               0.000              0.000              0.000
 Translational            0.000              2.981            -22.647
 Rotational               0.000              2.981             -9.846
 Vibrational             76.106              0.000              0.000

 Optimization completed.
    -- Stationary point found.
 Normal termination of Gaussian 16 at Mon Oct 14 09:07:46 2019.
