 Gaussian 16, Revision A.03,
 Gaussian 16:  ES64L-G16RevA.03 25-Dec-2016

 -------------------------------------------------------------------
 #p opt freq m062x/6-311++g(d,p) geom=connectivity temperature=0.001
 -------------------------------------------------------------------

 -----------------------------
 2_methyl_pyridine_n_oxide.sdf
 -----------------------------
 Symbolic Z-matrix:
 Charge =  1 Multiplicity = 1

 SCF Done:  E(RM062X) =  -363.062198568     A.U. after   14 cycles
 SCF Done:  E(RM062X) =  -363.071124791     A.U. after   12 cycles
 SCF Done:  E(RM062X) =  -363.071852846     A.U. after   11 cycles
 SCF Done:  E(RM062X) =  -363.072168363     A.U. after   11 cycles
 SCF Done:  E(RM062X) =  -363.072422501     A.U. after   11 cycles
 SCF Done:  E(RM062X) =  -363.072361550     A.U. after   11 cycles
 SCF Done:  E(RM062X) =  -363.072786429     A.U. after   11 cycles
 SCF Done:  E(RM062X) =  -363.073953213     A.U. after   13 cycles
 SCF Done:  E(RM062X) =  -363.074378375     A.U. after   12 cycles
 SCF Done:  E(RM062X) =  -363.074864123     A.U. after   13 cycles
 SCF Done:  E(RM062X) =  -363.074944026     A.U. after   12 cycles
 SCF Done:  E(RM062X) =  -363.074978273     A.U. after   11 cycles
 SCF Done:  E(RM062X) =  -363.074999476     A.U. after   10 cycles
 SCF Done:  E(RM062X) =  -363.075013040     A.U. after   11 cycles
 SCF Done:  E(RM062X) =  -363.075013851     A.U. after    9 cycles
 SCF Done:  E(RM062X) =  -363.075013948     A.U. after    8 cycles
 Optimization completed.
    -- Stationary point found.
 Normal termination of Gaussian 16 at Mon Oct 14 09:08:14 2019.

 ----------------------------------------------------------------------
 #P Geom=AllCheck Guess=TCheck SCRF=Check GenChk RM062X/6-311++G(d,p) F
 req
 ----------------------------------------------------------------------

 Structure from the checkpoint file:  "08_p.chk"
 -----------------------------
 2_methyl_pyridine_n_oxide.sdf
 -----------------------------
 Charge =  1 Multiplicity = 1

                         Standard orientation:
 ---------------------------------------------------------------------
 Center     Atomic      Atomic             Coordinates (Angstroms)
 Number     Number       Type             X           Y           Z
 ---------------------------------------------------------------------
      1          6           0       -1.970268   -0.527376   -0.004135
      2          6           0       -0.830327   -1.293726   -0.012787
      3          7           0        0.374091   -0.686068    0.014065
      4          6           0        0.563915    0.654232    0.003585
      5          6           0       -0.581833    1.441880    0.013657
      6          6           0       -1.841079    0.861546    0.012357
      7          6           0        1.958379    1.181249   -0.020082
      8          8           0        1.472361   -1.499849   -0.093982
      9          1           0       -2.936160   -1.013196   -0.019961
     10          1           0       -0.802102   -2.374826   -0.045799
     11          1           0       -0.462088    2.517291    0.012675
     12          1           0       -2.724520    1.488622    0.015076
     13          1           0        1.935238    2.264190   -0.116331
     14          1           0        2.487270    0.926896    0.902197
     15          1           0        2.513792    0.750762   -0.854996
     16          1           0        1.798323   -1.665307    0.804965
 ---------------------------------------------------------------------

 SCF Done:  E(RM062X) =  -363.075013948     A.U. after    1 cycles

 The electronic state is 1-A.
 Alpha  occ. eigenvalues --  -19.88307 -15.09280 -10.81234 -10.80077 -10.75971
 Alpha  occ. eigenvalues --  -10.74974 -10.74879 -10.71535  -1.46387  -1.25806
 Alpha  occ. eigenvalues --   -1.11015  -1.10593  -0.99376  -0.94944  -0.92096
 Alpha  occ. eigenvalues --   -0.85682  -0.79506  -0.78276  -0.75566  -0.72754
 Alpha  occ. eigenvalues --   -0.68967  -0.67878  -0.64924  -0.64190  -0.63777
 Alpha  occ. eigenvalues --   -0.62252  -0.60635  -0.55174  -0.51569
 Alpha virt. eigenvalues --   -0.21730  -0.18014  -0.14559  -0.11844  -0.10689
 Alpha virt. eigenvalues --   -0.09033  -0.08287  -0.08247  -0.07946  -0.06190
 Alpha virt. eigenvalues --   -0.05945  -0.05310  -0.04624  -0.04178  -0.02584

 Mulliken charges:
               1
     1  C   -0.348317
     2  C    0.073548
     3  N   -0.040149
     4  C   -0.198658
     5  C    0.367741
     6  C   -0.118892
     7  C   -0.937714
     8  O    0.029763
     9  H    0.281604
    10  H    0.309026
    11  H    0.276926
    12  H    0.294697
    13  H    0.226883
    14  H    0.217762
    15  H    0.242159
    16  H    0.323623
 Sum of Mulliken charges =   1.00000

 Dipole moment (field-independent basis, Debye):
    X=             -0.5965    Y=              0.0208    Z=              1.5260  Tot=              1.6385
 Quadrupole moment (field-independent basis, Debye-Ang):
   XX=            -26.6074   YY=            -30.9735   ZZ=            -45.7545
   XY=              0.7375   XZ=              3.3406   YZ=             -2.9970

  Exact polarizability:  92.943   1.117  81.185   1.044  -0.428  43.522
 Approx polarizability: 113.868  -1.325 106.280   1.003  -0.060  57.344

                      1                      2                      3
                      A                      A                      A
 Frequencies --    142.9743               171.0138               198.0147
 Red. masses --      1.1043                 3.0922                 1.1641
 Frc consts  --      0.0133                 0.0533                 0.0269
 IR Inten    --     37.2655                 3.3956                83.0148

                      4                      5                      6
                      A                      A                      A
 Frequencies --    260.6548               335.5435               449.5880
 Red. masses --      2.9134                 3.0300                 3.1348
 Frc consts  --      0.1166                 0.2010                 0.3733
 IR Inten    --     12.6805                 0.8094                13.4050

                      7                      8                      9
                      A                      A                      A
 Frequencies --    461.0359               494.7988               550.8851
 Red. masses --      4.3819                 3.2113                 5.4424
 Frc consts  --      0.5488                 0.4632                 0.9731
 IR Inten    --      0.4887                 3.1149                 0.0204

                     10                     11                     12
                      A                      A                      A
 Frequencies --    602.4754               685.6840               792.5874
 Red. masses --      6.1868                 3.4096                 4.8311
 Frc consts  --      1.3231                 0.9445                 1.7881
 IR Inten    --      0.5066                11.0433                 4.1029

                     13                     14                     15
                      A                      A                      A
 Frequencies --    799.0563               852.4595               904.7074
 Red. masses --      1.2493                 4.9138                 1.2474
 Frc consts  --      0.4700                 2.1038                 0.6015
 IR Inten    --     62.0189                 2.5355                 0.1758

                     16                     17                     18
                      A                      A                      A
 Frequencies --    995.8064              1020.4702              1045.0814
 Red. masses --      1.3190                 1.5481                 1.3372
 Frc consts  --      0.7706                 0.9499                 0.8605
 IR Inten    --      0.2941                 2.2921                 1.2573

                     19                     20                     21
                      A                      A                      A
 Frequencies --   1061.1830              1085.9792              1146.8769
 Red. masses --      1.5501                 2.0440                 1.6658
 Frc consts  --      1.0285                 1.4203                 1.2909
 IR Inten    --      6.3291                 2.5697                 6.1380

                     22                     23                     24
                      A                      A                      A
 Frequencies --   1195.2605              1243.2998              1270.3362
 Red. masses --      1.1194                 3.4166                 2.5250
 Frc consts  --      0.9423                 3.1117                 2.4007
 IR Inten    --      9.3024                26.4201                 3.1378

                     25                     26                     27
                      A                      A                      A
 Frequencies --   1297.0255              1328.5346              1398.8185
 Red. masses --      6.5236                 1.3910                 1.2199
 Frc consts  --      6.4660                 1.4465                 1.4063
 IR Inten    --     34.0760                 0.8553                52.5018

                     28                     29                     30
                      A                      A                      A
 Frequencies --   1423.7649              1470.4117              1476.1321
 Red. masses --      1.2397                 1.2388                 1.0655
 Frc consts  --      1.4807                 1.5781                 1.3679
 IR Inten    --     24.6801                10.1750                14.6394

                     31                     32                     33
                      A                      A                      A
 Frequencies --   1517.1180              1549.2834              1647.3416
 Red. masses --      1.8315                 2.7769                 6.8427
 Frc consts  --      2.4836                 3.9271                10.9406
 IR Inten    --     23.8974                54.6043                20.0780

                     34                     35                     36
                      A                      A                      A
 Frequencies --   1694.5356              3074.9020              3143.1408
 Red. masses --      6.1229                 1.0394                 1.0988
 Frc consts  --     10.3588                 5.7905                 6.3958
 IR Inten    --     43.4323                 5.3387                 1.6290

                     37                     38                     39
                      A                      A                      A
 Frequencies --   3191.6672              3226.9852              3242.8580
 Red. masses --      1.1029                 1.0921                 1.0960
 Frc consts  --      6.6195                 6.7007                 6.7909
 IR Inten    --      1.1597                 0.8904                 8.3257

                     40                     41                     42
                      A                      A                      A
 Frequencies --   3247.8403              3258.1445              3772.8551
 Red. masses --      1.0935                 1.1010                 1.0684
 Frc consts  --      6.7958                 6.8862                 8.9606
 IR Inten    --     14.9626                23.1385               163.5578

 - Thermochemistry -
 -------------------
 Temperature     0.001 Kelvin.  Pressure   1.00000 Atm.
 Atom     1 has atomic number  6 and mass  12.00000

 Molecular mass:   110.06059 amu.
 Principal axes and moments of inertia in atomic units:
                           1         2         3
     Eigenvalues --   529.94649 805.041921318.13527
           X            0.99765   0.06827   0.00600
           Y           -0.06822   0.99764  -0.00810
           Z           -0.00654   0.00767   0.99995
 This molecule is an asymmetric top.
 Rotational symmetry number  1.
 Warning -- assumption of classical behavior for rotation
           may cause significant error
 Rotational temperatures (Kelvin)      0.16344     0.10759     0.06571
 Rotational constants (GHZ):           3.40552     2.24180     1.36916
 Zero-point vibrational energy     351266.3 (Joules/Mol)
                                   83.95465 (Kcal/Mol)
 Vibrational temperatures:    205.71   246.05   284.90   375.02   482.77
          (Kelvin)            646.86   663.33   711.91   792.60   866.83
                              986.55  1140.36  1149.66  1226.50  1301.67
                             1432.74  1468.23  1503.64  1526.81  1562.48
                             1650.10  1719.71  1788.83  1827.73  1866.13
                             1911.47  2012.59  2048.48  2115.59  2123.82
                             2182.79  2229.07  2370.16  2438.06  4424.10
                             4522.28  4592.10  4642.91  4665.75  4672.92
                             4687.74  5428.30

 Zero-point correction=                           0.133790 (Hartree/Particle)
 Thermal correction to Energy=                    0.133790
 Thermal correction to Enthalpy=                  0.133790
 Thermal correction to Gibbs Free Energy=         0.133790
 Sum of electronic and zero-point Energies=           -362.941224
 Sum of electronic and thermal Energies=              -362.941224
 Sum of electronic and thermal Enthalpies=            -362.941224
 Sum of electronic and thermal Free Energies=         -362.941224

                     E (Thermal)             CV                S
                      KCal/Mol        Cal/Mol-Kelvin    Cal/Mol-Kelvin
 Total                   83.955              5.962            -32.372
 Electronic               0.000              0.000              0.000
 Translational            0.000              2.981            -22.620
 Rotational               0.000              2.981             -9.752
 Vibrational             83.955              0.000              0.000

 Optimization completed.
    -- Stationary point found.
 Normal termination of Gaussian 16 at Mon Oct 14 09:09:31 2019.
