 Gaussian 16, Revision A.03,
 Gaussian 16:  ES64L-G16RevA.03 25-Dec-2016

 -------------------------------------------------------------------
 #p opt freq m062x/6-311++g(d,p) geom=connectivity temperature=0.001
 -------------------------------------------------------------------

 ------------------
 methylbenzophenone
 ------------------
 Symbolic Z-matrix:
 Charge =  0 Multiplicity = 1

 SCF Done:  E(RM062X) =  -615.813895670     A.U. after   16 cycles
 SCF Done:  E(RM062X) =  -615.838165370     A.U. after   16 cycles
 SCF Done:  E(RM062X) =  -615.841662469     A.U. after   15 cycles
 SCF Done:  E(RM062X) =  -615.842748577     A.U. after   14 cycles
 SCF Done:  E(RM062X) =  -615.843013627     A.U. after   14 cycles
 SCF Done:  E(RM062X) =  -615.843061553     A.U. after   13 cycles
 SCF Done:  E(RM062X) =  -615.843103539     A.U. after   14 cycles
 SCF Done:  E(RM062X) =  -615.843114009     A.U. after   13 cycles
 SCF Done:  E(RM062X) =  -615.843116382     A.U. after   13 cycles
 SCF Done:  E(RM062X) =  -615.843116651     A.U. after    9 cycles
 SCF Done:  E(RM062X) =  -615.843120871     A.U. after   11 cycles
 SCF Done:  E(RM062X) =  -615.843123284     A.U. after   12 cycles
 SCF Done:  E(RM062X) =  -615.843126252     A.U. after   11 cycles
 SCF Done:  E(RM062X) =  -615.843128497     A.U. after   11 cycles
 SCF Done:  E(RM062X) =  -615.843128881     A.U. after   13 cycles
 SCF Done:  E(RM062X) =  -615.843129702     A.U. after   11 cycles
 SCF Done:  E(RM062X) =  -615.843130722     A.U. after   11 cycles
 SCF Done:  E(RM062X) =  -615.843130968     A.U. after   11 cycles
 SCF Done:  E(RM062X) =  -615.843131017     A.U. after   10 cycles
 Optimization completed.
    -- Stationary point found.
 Normal termination of Gaussian 16 at Mon Oct 14 12:11:14 2019.

 ----------------------------------------------------------------------
 #P Geom=AllCheck Guess=TCheck SCRF=Check GenChk RM062X/6-311++G(d,p) F
 req
 ----------------------------------------------------------------------

 Structure from the checkpoint file:  "09.chk"
 ------------------
 methylbenzophenone
 ------------------
 Charge =  0 Multiplicity = 1

                         Standard orientation:
 ---------------------------------------------------------------------
 Center     Atomic      Atomic             Coordinates (Angstroms)
 Number     Number       Type             X           Y           Z
 ---------------------------------------------------------------------
      1          6           0        2.376450   -1.177822   -0.648079
      2          6           0        3.443264   -0.472595   -0.093541
      3          6           0        3.186022    0.770991    0.493566
      4          6           0        1.902804    1.290685    0.526603
      5          6           0        0.833855    0.565893   -0.007360
      6          6           0        1.081612   -0.672052   -0.599768
      7          6           0       -0.524300    1.195410    0.007881
      8          6           0       -1.744249    0.322142    0.029069
      9          8           0       -0.641114    2.401451    0.002471
     10          6           0       -1.765084   -0.913786    0.677672
     11          6           0       -2.940844   -1.655339    0.725933
     12          6           0       -4.092772   -1.174477    0.112392
     13          6           0       -4.076525    0.059659   -0.533691
     14          6           0       -2.910177    0.811087   -0.563551
     15          6           0        4.840994   -1.031930   -0.110992
     16          1           0        2.560336   -2.133570   -1.126866
     17          1           0        4.007522    1.336883    0.920747
     18          1           0        1.704924    2.264026    0.959903
     19          1           0        0.268945   -1.231585   -1.048313
     20          1           0       -0.870291   -1.284409    1.164042
     21          1           0       -2.957631   -2.606962    1.243492
     22          1           0       -5.005492   -1.757961    0.142616
     23          1           0       -4.975566    0.436423   -1.006514
     24          1           0       -2.881675    1.783897   -1.039905
     25          1           0        5.563179   -0.269554   -0.409351
     26          1           0        5.125631   -1.383575    0.884347
     27          1           0        4.922739   -1.872413   -0.800760
 ---------------------------------------------------------------------

 SCF Done:  E(RM062X) =  -615.843131017     A.U. after    1 cycles

 The electronic state is 1-A.
 Alpha  occ. eigenvalues --  -19.61599 -10.63536 -10.56549 -10.55954 -10.55810
 Alpha  occ. eigenvalues --  -10.55767 -10.55691 -10.55634 -10.55451 -10.55396
 Alpha  occ. eigenvalues --  -10.55297 -10.55291 -10.55102 -10.54954 -10.54284
 Alpha  occ. eigenvalues --   -1.17313  -0.98005  -0.97401  -0.89480  -0.86627
 Alpha  occ. eigenvalues --   -0.85607  -0.85318  -0.80015  -0.73357  -0.70440
 Alpha  occ. eigenvalues --   -0.70180  -0.68341  -0.64436  -0.61203  -0.57621
 Alpha  occ. eigenvalues --   -0.55254  -0.53879  -0.53578  -0.52554  -0.51168
 Alpha  occ. eigenvalues --   -0.50194  -0.49949  -0.49888  -0.49755  -0.47635
 Alpha  occ. eigenvalues --   -0.45719  -0.44624  -0.43052  -0.42544  -0.42335
 Alpha  occ. eigenvalues --   -0.41068  -0.40628  -0.33360  -0.32138  -0.31739
 Alpha  occ. eigenvalues --   -0.31522  -0.30621
 Alpha virt. eigenvalues --   -0.03680  -0.00730  -0.00031   0.00065   0.00752
 Alpha virt. eigenvalues --    0.01076   0.01388   0.01634   0.01756   0.02350
 Alpha virt. eigenvalues --    0.03206   0.03480   0.04070   0.04467   0.05270

 Mulliken charges:
               1
     1  C   -0.611764
     2  C    0.446101
     3  C   -0.303623
     4  C    0.187887
     5  C    1.383590
     6  C   -0.992401
     7  C   -1.554875
     8  C    1.380120
     9  O   -0.195956
    10  C   -0.843109
    11  C   -0.292080
    12  C   -0.338732
    13  C   -0.403378
    14  C    0.348217
    15  C   -0.628488
    16  H    0.196837
    17  H    0.211463
    18  H    0.242411
    19  H    0.180102
    20  H    0.188272
    21  H    0.219460
    22  H    0.198040
    23  H    0.212484
    24  H    0.249384
    25  H    0.163419
    26  H    0.189355
    27  H    0.167265
 Sum of Mulliken charges =  -0.00000

 Dipole moment (field-independent basis, Debye):
    X=              0.9109    Y=             -3.2840    Z=              0.0294  Tot=              3.4081
 Quadrupole moment (field-independent basis, Debye-Ang):
   XX=            -70.1295   YY=            -90.8137   ZZ=            -89.8058
   XY=              2.4963   XZ=              3.0117   YZ=             -0.1799

  Exact polarizability: 227.263   0.180 156.122  10.486  -0.169 104.315
 Approx polarizability: 243.274  -0.075 222.659  16.843   0.082 145.757

                      1                      2                      3
                      A                      A                      A
 Frequencies --     36.2442                41.7555                61.9730
 Red. masses --      1.2573                 2.4789                 4.1612
 Frc consts  --      0.0010                 0.0025                 0.0094
 IR Inten    --      0.6518                 0.7551                 0.4446

                      4                      5                      6
                      A                      A                      A
 Frequencies --     81.1448               118.0994               185.1972
 Red. masses --      3.8934                 5.3790                 4.6130
 Frc consts  --      0.0151                 0.0442                 0.0932
 IR Inten    --      0.3987                 0.9041                 0.8818

                      7                      8                      9
                      A                      A                      A
 Frequencies --    212.1288               270.0131               285.3958
 Red. masses --      4.7396                 5.1132                 4.7897
 Frc consts  --      0.1257                 0.2196                 0.2299
 IR Inten    --      1.9957                 0.7757                 3.3204

                     10                     11                     12
                      A                      A                      A
 Frequencies --    357.0361               382.3165               411.9760
 Red. masses --      3.0489                 6.2427                 2.8959
 Frc consts  --      0.2290                 0.5376                 0.2896
 IR Inten    --      2.1883                 2.6839                 0.4656

                     13                     14                     15
                      A                      A                      A
 Frequencies --    424.9907               440.8298               481.7780
 Red. masses --      2.9797                 4.0563                 3.1902
 Frc consts  --      0.3171                 0.4644                 0.4363
 IR Inten    --      0.0465                 2.4883                10.0057

                     16                     17                     18
                      A                      A                      A
 Frequencies --    561.8583               616.3048               629.0241
 Red. masses --      4.5299                 5.4337                 6.4190
 Frc consts  --      0.8425                 1.2160                 1.4964
 IR Inten    --      1.0573                19.8465                 1.2595

                     19                     20                     21
                      A                      A                      A
 Frequencies --    650.0944               695.1316               711.0736
 Red. masses --      6.7267                 4.3840                 5.1526
 Frc consts  --      1.6750                 1.2481                 1.5350
 IR Inten    --      1.6102                13.2257                 5.7518

                     22                     23                     24
                      A                      A                      A
 Frequencies --    718.3534               750.6846               811.7117
 Red. masses --      1.6781                 2.3745                 1.9152
 Frc consts  --      0.5102                 0.7884                 0.7435
 IR Inten    --     61.7074                44.8944                15.5884

                     25                     26                     27
                      A                      A                      A
 Frequencies --    820.9071               865.7885               874.7760
 Red. masses --      4.9667                 1.8093                 1.2995
 Frc consts  --      1.9720                 0.7991                 0.5859
 IR Inten    --      3.9514                17.2076                 3.5785

                     28                     29                     30
                      A                      A                      A
 Frequencies --    881.6150               948.0234               972.1769
 Red. masses --      1.2494                 3.9570                 1.6112
 Frc consts  --      0.5721                 2.0953                 0.8972
 IR Inten    --      0.8695                65.2772                12.0876

                     31                     32                     33
                      A                      A                      A
 Frequencies --    995.7900              1011.7882              1013.7280
 Red. masses --      1.3480                 1.3831                 1.4055
 Frc consts  --      0.7876                 0.8342                 0.8510
 IR Inten    --      2.7861                 0.2065                10.2777

                     34                     35                     36
                      A                      A                      A
 Frequencies --   1016.2533              1020.1270              1026.8157
 Red. masses --      1.3712                 5.4813                 1.3015
 Frc consts  --      0.8344                 3.3608                 0.8085
 IR Inten    --      0.2779                 0.0718                 0.4078

                     37                     38                     39
                      A                      A                      A
 Frequencies --   1042.6033              1061.0303              1064.8163
 Red. masses --      2.7554                 2.0746                 1.5720
 Frc consts  --      1.7647                 1.3761                 1.0501
 IR Inten    --      0.6875                 2.0897                 7.4041

                     40                     41                     42
                      A                      A                      A
 Frequencies --   1113.0452              1141.7200              1179.0656
 Red. masses --      1.5010                 1.2977                 1.2262
 Frc consts  --      1.0956                 0.9967                 1.0043
 IR Inten    --      5.1372                 5.0854                 2.4924

                     43                     44                     45
                      A                      A                      A
 Frequencies --   1183.1652              1202.7902              1212.0336
 Red. masses --      2.3597                 1.1226                 1.2251
 Frc consts  --      1.9462                 0.9569                 1.0604
 IR Inten    --      5.2331                26.5333                 8.4535

                     46                     47                     48
                      A                      A                      A
 Frequencies --   1246.7803              1308.5248              1328.0524
 Red. masses --      2.7753                 3.6900                 6.1434
 Frc consts  --      2.5418                 3.7226                 6.3840
 IR Inten    --      0.5844               201.6526                 2.5427

                     49                     50                     51
                      A                      A                      A
 Frequencies --   1333.4377              1337.3750              1350.3482
 Red. masses --      3.7224                 1.4719                 1.4872
 Frc consts  --      3.8996                 1.5511                 1.5978
 IR Inten    --     65.4385                52.5591                14.4211

                     52                     53                     54
                      A                      A                      A
 Frequencies --   1416.4392              1446.9343              1487.6009
 Red. masses --      1.2782                 2.5437                 2.3425
 Frc consts  --      1.5109                 3.1378                 3.0543
 IR Inten    --      2.1835                 9.5701                15.0479

                     55                     56                     57
                      A                      A                      A
 Frequencies --   1492.3863              1500.1695              1532.7796
 Red. masses --      1.0536                 1.1312                 2.3544
 Frc consts  --      1.3826                 1.5000                 3.2590
 IR Inten    --      9.2317                14.7953                 1.8474

                     58                     59                     60
                      A                      A                      A
 Frequencies --   1556.7011              1641.7662              1653.4877
 Red. masses --      2.7801                 6.4340                 6.0777
 Frc consts  --      3.9694                10.2177                 9.7902
 IR Inten    --      0.7234                 5.5249                 3.7021

                     61                     62                     63
                      A                      A                      A
 Frequencies --   1673.8148              1683.4113              1794.2437
 Red. masses --      5.9616                 6.2382                12.8213
 Frc consts  --      9.8408                10.4158                24.3189
 IR Inten    --     13.3920                66.9891               230.9187

                     64                     65                     66
                      A                      A                      A
 Frequencies --   3064.2795              3127.0901              3152.5142
 Red. masses --      1.0373                 1.0998                 1.1026
 Frc consts  --      5.7386                 6.3362                 6.4560
 IR Inten    --     17.6358                 8.7728                 9.6907

                     67                     68                     69
                      A                      A                      A
 Frequencies --   3193.7796              3197.8601              3202.2276
 Red. masses --      1.0897                 1.0889                 1.0860
 Frc consts  --      6.5487                 6.5605                 6.5610
 IR Inten    --      8.1904                 7.8974                 0.1403

                     70                     71                     72
                      A                      A                      A
 Frequencies --   3210.1994              3216.5811              3217.9281
 Red. masses --      1.0890                 1.0930                 1.0932
 Frc consts  --      6.6122                 6.6628                 6.6699
 IR Inten    --      3.0168                 6.7426                 1.8904

                     73                     74                     75
                      A                      A                      A
 Frequencies --   3221.5908              3224.7197              3230.0749
 Red. masses --      1.0941                 1.0953                 1.0989
 Frc consts  --      6.6906                 6.7106                 6.7548
 IR Inten    --      2.3683                 5.4113                 9.0846

 - Thermochemistry -
 -------------------
 Temperature     0.001 Kelvin.  Pressure   1.00000 Atm.
 Atom     1 has atomic number  6 and mass  12.00000

 Molecular mass:   196.08882 amu.
 Principal axes and moments of inertia in atomic units:
                           1         2         3
     Eigenvalues --  1163.575005678.703296514.38329
           X            0.99999  -0.00340   0.00203
           Y            0.00340   0.99999   0.00084
           Z           -0.00203  -0.00084   1.00000
 This molecule is an asymmetric top.
 Rotational symmetry number  1.
 Warning -- assumption of classical behavior for rotation
           may cause significant error
 Rotational temperatures (Kelvin)      0.07444     0.01525     0.01330
 Rotational constants (GHZ):           1.55103     0.31781     0.27704
 Zero-point vibrational energy     577953.5 (Joules/Mol)
                                  138.13419 (Kcal/Mol)
 Vibrational temperatures:     52.15    60.08    89.17   116.75   169.92
          (Kelvin)            266.46   305.21   388.49   410.62   513.70
                              550.07   592.74   611.47   634.26   693.17
                              808.39   886.73   905.03   935.34  1000.14
                             1023.08  1033.55  1080.07  1167.87  1181.10
                             1245.68  1258.61  1268.45  1363.99  1398.75
                             1432.72  1455.74  1458.53  1462.16  1467.74
                             1477.36  1500.07  1526.59  1532.03  1601.42
                             1642.68  1696.41  1702.31  1730.55  1743.85
                             1793.84  1882.68  1910.77  1918.52  1924.18
                             1942.85  2037.94  2081.82  2140.33  2147.21
                             2158.41  2205.33  2239.75  2362.14  2379.00
                             2408.25  2422.05  2581.52  4408.81  4499.19
                             4535.76  4595.14  4601.01  4607.29  4618.76
                             4627.94  4629.88  4635.15  4639.65  4647.36

 Zero-point correction=                           0.220131 (Hartree/Particle)
 Thermal correction to Energy=                    0.220131
 Thermal correction to Enthalpy=                  0.220131
 Thermal correction to Gibbs Free Energy=         0.220131
 Sum of electronic and zero-point Energies=           -615.623000
 Sum of electronic and thermal Energies=              -615.623000
 Sum of electronic and thermal Enthalpies=            -615.623000
 Sum of electronic and thermal Free Energies=         -615.623000

                     E (Thermal)             CV                S
                      KCal/Mol        Cal/Mol-Kelvin    Cal/Mol-Kelvin
 Total                  138.134              5.962            -26.341
 Electronic               0.000              0.000              0.000
 Translational            0.000              2.981            -20.898
 Rotational               0.000              2.981             -5.442
 Vibrational            138.134              0.000              0.000

 Optimization completed on the basis of negligible forces.
    -- Stationary point found.
 Normal termination of Gaussian 16 at Mon Oct 14 12:17:46 2019.
