 Gaussian 16, Revision A.03,
 Gaussian 16:  ES64L-G16RevA.03 25-Dec-2016

 -------------------------------------------------------------------
 #p opt freq m062x/6-311++g(d,p) geom=connectivity temperature=0.001
 -------------------------------------------------------------------

 ------------------
 methylbenzophenone
 ------------------
 Symbolic Z-matrix:
 Charge =  1 Multiplicity = 1

 SCF Done:  E(RM062X) =  -616.137156948     A.U. after   16 cycles
 SCF Done:  E(RM062X) =  -616.167676319     A.U. after   16 cycles
 SCF Done:  E(RM062X) =  -616.170266904     A.U. after   16 cycles
 SCF Done:  E(RM062X) =  -616.177884727     A.U. after   16 cycles
 SCF Done:  E(RM062X) =  -616.183342211     A.U. after   15 cycles
 SCF Done:  E(RM062X) =  -616.190925540     A.U. after   16 cycles
 SCF Done:  E(RM062X) =  -616.193205401     A.U. after   13 cycles
 SCF Done:  E(RM062X) =  -616.194074776     A.U. after   14 cycles
 SCF Done:  E(RM062X) =  -616.194197864     A.U. after   13 cycles
 SCF Done:  E(RM062X) =  -616.194244429     A.U. after   12 cycles
 SCF Done:  E(RM062X) =  -616.194255367     A.U. after   11 cycles
 SCF Done:  E(RM062X) =  -616.194255727     A.U. after   11 cycles
 SCF Done:  E(RM062X) =  -616.194255819     A.U. after   10 cycles
 SCF Done:  E(RM062X) =  -616.194255948     A.U. after   11 cycles
 SCF Done:  E(RM062X) =  -616.194255080     A.U. after   12 cycles
 SCF Done:  E(RM062X) =  -616.194256078     A.U. after   11 cycles
 SCF Done:  E(RM062X) =  -616.194256106     A.U. after    9 cycles
 SCF Done:  E(RM062X) =  -616.194256116     A.U. after    9 cycles
 SCF Done:  E(RM062X) =  -616.194256139     A.U. after    9 cycles
 Optimization completed.
    -- Stationary point found.
 Normal termination of Gaussian 16 at Mon Oct 14 12:17:04 2019.

 ----------------------------------------------------------------------
 #P Geom=AllCheck Guess=TCheck SCRF=Check GenChk RM062X/6-311++G(d,p) F
 req
 ----------------------------------------------------------------------

 Structure from the checkpoint file:  "09_p.chk"
 ------------------
 methylbenzophenone
 ------------------
 Charge =  1 Multiplicity = 1

                         Standard orientation:
 ---------------------------------------------------------------------
 Center     Atomic      Atomic             Coordinates (Angstroms)
 Number     Number       Type             X           Y           Z
 ---------------------------------------------------------------------
      1          6           0        2.402430   -1.179121   -0.677626
      2          6           0        3.444391   -0.465944   -0.074832
      3          6           0        3.150925    0.753148    0.558469
      4          6           0        1.865230    1.248751    0.579624
      5          6           0        0.816785    0.515178   -0.014143
      6          6           0        1.101701   -0.710299   -0.642109
      7          6           0       -0.519936    1.055459   -0.027930
      8          6           0       -1.727537    0.279073    0.018267
      9          8           0       -0.687601    2.346192   -0.085638
     10          6           0       -1.727699   -1.011959    0.583751
     11          6           0       -2.907597   -1.731067    0.644123
     12          6           0       -4.083891   -1.178458    0.138495
     13          6           0       -4.094537    0.103532   -0.414622
     14          6           0       -2.927263    0.840173   -0.465023
     15          6           0        4.849295   -0.987554   -0.084331
     16          1           0        2.620242   -2.108958   -1.189503
     17          1           0        3.947596    1.305347    1.043800
     18          1           0        1.661232    2.170365    1.116768
     19          1           0        0.313369   -1.255649   -1.146502
     20          1           0       -0.820724   -1.417708    1.013981
     21          1           0       -2.919098   -2.715050    1.094838
     22          1           0       -5.004471   -1.748497    0.183835
     23          1           0       -5.015394    0.520390   -0.801679
     24          1           0       -2.919853    1.833538   -0.895476
     25          1           0        5.552817   -0.200432   -0.361311
     26          1           0        5.123238   -1.332397    0.916900
     27          1           0        4.963342   -1.821684   -0.774871
     28          1           0        0.144737    2.815718   -0.248346
 ---------------------------------------------------------------------

 SCF Done:  E(RM062X) =  -616.194256139     A.U. after    1 cycles

 The electronic state is 1-A.
 Alpha  occ. eigenvalues --  -19.86850 -10.83967 -10.72295 -10.71758 -10.71482
 Alpha  occ. eigenvalues --  -10.71293 -10.71238 -10.70821 -10.70469 -10.69950
 Alpha  occ. eigenvalues --  -10.69376 -10.69147 -10.68893 -10.68794 -10.65710
 Alpha  occ. eigenvalues --   -1.41621  -1.13767  -1.12126  -1.05940  -1.02129
 Alpha  occ. eigenvalues --   -1.00539  -0.99869  -0.95312  -0.91729  -0.85887
 Alpha  occ. eigenvalues --   -0.85148  -0.83568  -0.82756  -0.78727  -0.76413
 Alpha  occ. eigenvalues --   -0.71057  -0.70749  -0.69847  -0.68226  -0.67511
 Alpha  occ. eigenvalues --   -0.66061  -0.65072  -0.64750  -0.63925  -0.62341
 Alpha  occ. eigenvalues --   -0.61486  -0.59042  -0.58317  -0.57692  -0.56676
 Alpha  occ. eigenvalues --   -0.55794  -0.55090  -0.54759  -0.47938  -0.46795
 Alpha  occ. eigenvalues --   -0.45881  -0.45110
 Alpha virt. eigenvalues --   -0.23445  -0.14422  -0.13500  -0.12343  -0.11678
 Alpha virt. eigenvalues --   -0.09815  -0.09085  -0.08613  -0.07760  -0.07639
 Alpha virt. eigenvalues --   -0.07165  -0.06761  -0.06400  -0.05845  -0.05388

 Mulliken charges:
               1
     1  C   -0.588775
     2  C    0.413993
     3  C   -0.213909
     4  C    0.041755
     5  C    1.113485
     6  C   -1.098445
     7  C   -0.741564
     8  C    1.297079
     9  O   -0.023222
    10  C   -1.268194
    11  C   -0.186790
    12  C   -0.421370
    13  C   -0.388020
    14  C    0.557903
    15  C   -0.619988
    16  H    0.242959
    17  H    0.252718
    18  H    0.254146
    19  H    0.215465
    20  H    0.202776
    21  H    0.264568
    22  H    0.246304
    23  H    0.254582
    24  H    0.271935
    25  H    0.189628
    26  H    0.220711
    27  H    0.191519
    28  H    0.318749
 Sum of Mulliken charges =   1.00000

 Dipole moment (field-independent basis, Debye):
    X=              0.6016    Y=              0.6965    Z=             -0.1996  Tot=              0.9417
 Quadrupole moment (field-independent basis, Debye-Ang):
   XX=            -31.3323   YY=            -65.7977   ZZ=            -85.9872
   XY=              3.8172   XZ=              2.8178   YZ=             -0.7362

  Exact polarizability: 279.477   3.966 153.274   7.579   0.112  96.884
 Approx polarizability: 299.713   3.348 219.862  13.788   0.766 136.068

                      1                      2                      3
                      A                      A                      A
 Frequencies --     35.2759                51.9226                69.4056
 Red. masses --      1.0475                 3.8555                 4.2451
 Frc consts  --      0.0008                 0.0061                 0.0120
 IR Inten    --      0.5391                 1.7210                 0.1840

                      4                      5                      6
                      A                      A                      A
 Frequencies --     85.4532               126.4845               180.7667
 Red. masses --      3.7732                 4.8151                 4.2229
 Frc consts  --      0.0162                 0.0454                 0.0813
 IR Inten    --      0.5284                 4.3937                 3.0402

                      7                      8                      9
                      A                      A                      A
 Frequencies --    223.3919               277.5726               287.4407
 Red. masses --      4.5956                 4.3441                 5.0923
 Frc consts  --      0.1351                 0.1972                 0.2479
 IR Inten    --      1.3707                 2.1694                 0.8658

                     10                     11                     12
                      A                      A                      A
 Frequencies --    359.9512               387.1747               405.3203
 Red. masses --      3.0150                 4.7134                 2.8759
 Frc consts  --      0.2302                 0.4163                 0.2784
 IR Inten    --      1.9449                 4.0108                 8.4543

                     13                     14                     15
                      A                      A                      A
 Frequencies --    422.3443               431.6367               483.3134
 Red. masses --      2.9696                 3.6709                 3.0873
 Frc consts  --      0.3121                 0.4030                 0.4249
 IR Inten    --      1.6023                13.5518                 6.8160

                     16                     17                     18
                      A                      A                      A
 Frequencies --    551.0069               599.2925               622.0180
 Red. masses --      4.8311                 4.4258                 6.3923
 Frc consts  --      0.8642                 0.9365                 1.4572
 IR Inten    --      1.4023                31.2576                 2.2146

                     19                     20                     21
                      A                      A                      A
 Frequencies --    641.4109               655.8316               685.9617
 Red. masses --      4.7162                 1.3756                 2.3265
 Frc consts  --      1.1432                 0.3486                 0.6450
 IR Inten    --     16.8788                72.5384                 3.5831

                     22                     23                     24
                      A                      A                      A
 Frequencies --    708.3612               711.8233               749.2585
 Red. masses --      2.7999                 4.1331                 2.2660
 Frc consts  --      0.8278                 1.2339                 0.7495
 IR Inten    --     22.1490                23.9899                75.3176

                     25                     26                     27
                      A                      A                      A
 Frequencies --    817.4818               819.1908               855.2703
 Red. masses --      1.9630                 4.8464                 1.6839
 Frc consts  --      0.7729                 1.9162                 0.7257
 IR Inten    --     25.5190                 7.2742                20.3747

                     28                     29                     30
                      A                      A                      A
 Frequencies --    868.8838               877.8014               929.7615
 Red. masses --      1.2504                 1.2507                 4.0970
 Frc consts  --      0.5562                 0.5678                 2.0867
 IR Inten    --     15.0524                 3.6193                20.4554

                     31                     32                     33
                      A                      A                      A
 Frequencies --    993.8986              1002.3574              1014.0463
 Red. masses --      1.3531                 1.3070                 5.2569
 Frc consts  --      0.7875                 0.7737                 3.1849
 IR Inten    --      1.8966                 2.4692                14.9035

                     34                     35                     36
                      A                      A                      A
 Frequencies --   1016.5281              1022.8112              1029.2503
 Red. masses --      1.4071                 1.3669                 1.3801
 Frc consts  --      0.8567                 0.8425                 0.8614
 IR Inten    --      7.9104                 1.7200                 1.0051

                     37                     38                     39
                      A                      A                      A
 Frequencies --   1032.4971              1048.1989              1056.5802
 Red. masses --      2.6893                 1.3444                 2.1685
 Frc consts  --      1.6891                 0.8703                 1.4263
 IR Inten    --      6.6165                 0.5177                 0.4664

                     40                     41                     42
                      A                      A                      A
 Frequencies --   1060.8571              1130.8435              1164.2527
 Red. masses --      1.6372                 1.5186                 1.2866
 Frc consts  --      1.0856                 1.1442                 1.0275
 IR Inten    --     13.9580                12.6404                 2.9081

                     43                     44                     45
                      A                      A                      A
 Frequencies --   1195.7836              1200.6110              1209.5747
 Red. masses --      1.1216                 1.9049                 1.2442
 Frc consts  --      0.9449                 1.6178                 1.0725
 IR Inten    --      5.1970                41.1068               190.3858

                     46                     47                     48
                      A                      A                      A
 Frequencies --   1227.5324              1243.7112              1256.7111
 Red. masses --      1.4776                 1.5287                 2.6470
 Frc consts  --      1.3118                 1.3932                 2.4631
 IR Inten    --      3.7612               169.2560                 2.2402

                     49                     50                     51
                      A                      A                      A
 Frequencies --   1336.4006              1341.7685              1345.8913
 Red. masses --      2.1170                 2.7802                 1.7540
 Frc consts  --      2.2276                 2.9491                 1.8720
 IR Inten    --     23.2156                31.6519                20.0558

                     52                     53                     54
                      A                      A                      A
 Frequencies --   1368.1318              1416.0357              1449.0044
 Red. masses --      2.5639                 1.2481                 2.5184
 Frc consts  --      2.8276                 1.4745                 3.1155
 IR Inten    --     18.6751                 6.7281               129.0117

                     55                     56                     57
                      A                      A                      A
 Frequencies --   1450.5313              1476.6028              1488.2913
 Red. masses --      3.5688                 1.4169                 1.1983
 Frc consts  --      4.4241                 1.8202                 1.5638
 IR Inten    --    295.5877               101.0960                68.1076

                     58                     59                     60
                      A                      A                      A
 Frequencies --   1497.8514              1510.1868              1537.5189
 Red. masses --      1.6034                 2.7182                 2.5956
 Frc consts  --      2.1195                 3.6526                 3.6151
 IR Inten    --    181.5817               232.3153               113.7675

                     61                     62                     63
                      A                      A                      A
 Frequencies --   1561.2234              1617.7904              1636.0275
 Red. masses --      3.2685                 5.6342                 5.3420
 Frc consts  --      4.6938                 8.6881                 8.4244
 IR Inten    --    449.3155                23.5896                21.0991

                     64                     65                     66
                      A                      A                      A
 Frequencies --   1658.0707              1670.6595              3068.6858
 Red. masses --      5.5540                 5.8876                 1.0391
 Frc consts  --      8.9962                 9.6820                 5.7653
 IR Inten    --    406.3458                60.1069                 1.5346

                     67                     68                     69
                      A                      A                      A
 Frequencies --   3134.0492              3172.1202              3188.7364
 Red. masses --      1.0979                 1.1030                 1.0903
 Frc consts  --      6.3537                 6.5395                 6.5319
 IR Inten    --      2.1604                 5.7918                 0.1947

                     70                     71                     72
                      A                      A                      A
 Frequencies --   3216.0380              3216.6974              3216.8214
 Red. masses --      1.0897                 1.0942                 1.0899
 Frc consts  --      6.6406                 6.6707                 6.6452
 IR Inten    --      0.4114                 0.1674                 0.0346

                     73                     74                     75
                      A                      A                      A
 Frequencies --   3226.1328              3229.3687              3230.3557
 Red. masses --      1.0910                 1.0930                 1.0945
 Frc consts  --      6.6900                 6.7156                 6.7295
 IR Inten    --      0.0774                 1.3913                 0.1628

                     76                     77                     78
                      A                      A                      A
 Frequencies --   3238.1472              3241.7795              3789.2339
 Red. masses --      1.0967                 1.0993                 1.0659
 Frc consts  --      6.7754                 6.8066                 9.0170
 IR Inten    --      1.2703                 0.3011               165.0653

 - Thermochemistry -
 -------------------
 Temperature     0.001 Kelvin.  Pressure   1.00000 Atm.
 Atom     1 has atomic number  6 and mass  12.00000

 Molecular mass:   197.09664 amu.
 Principal axes and moments of inertia in atomic units:
                           1         2         3
     Eigenvalues --  1165.497665657.710076516.43402
           X            0.99999  -0.00317   0.00198
           Y            0.00317   0.99999   0.00206
           Z           -0.00198  -0.00205   1.00000
 This molecule is an asymmetric top.
 Rotational symmetry number  1.
 Warning -- assumption of classical behavior for rotation
           may cause significant error
 Rotational temperatures (Kelvin)      0.07431     0.01531     0.01329
 Rotational constants (GHZ):           1.54847     0.31899     0.27695
 Zero-point vibrational energy     612230.9 (Joules/Mol)
                                  146.32669 (Kcal/Mol)
 Vibrational temperatures:     50.75    74.71    99.86   122.95   181.98
          (Kelvin)            260.08   321.41   399.37   413.56   517.89
                              557.06   583.17   607.66   621.03   695.38
                              792.78   862.25   894.95   922.85   943.60
                              986.95  1019.17  1024.15  1078.02  1176.17
                             1178.63  1230.54  1250.13  1262.96  1337.72
                             1430.00  1442.17  1458.99  1462.56  1471.60
                             1480.86  1485.53  1508.12  1520.18  1526.34
                             1627.03  1675.10  1720.47  1727.41  1740.31
                             1766.15  1789.42  1808.13  1922.78  1930.51
                             1936.44  1968.44  2037.36  2084.79  2086.99
                             2124.50  2141.32  2155.07  2172.82  2212.15
                             2246.25  2327.64  2353.88  2385.59  2403.71
                             4415.15  4509.20  4563.97  4587.88  4627.16
                             4628.11  4628.29  4641.69  4646.34  4647.76
                             4658.97  4664.20  5451.86

 Zero-point correction=                           0.233186 (Hartree/Particle)
 Thermal correction to Energy=                    0.233186
 Thermal correction to Enthalpy=                  0.233186
 Thermal correction to Gibbs Free Energy=         0.233186
 Sum of electronic and zero-point Energies=           -615.961070
 Sum of electronic and thermal Energies=              -615.961070
 Sum of electronic and thermal Enthalpies=            -615.961070
 Sum of electronic and thermal Free Energies=         -615.961070

                     E (Thermal)             CV                S
                      KCal/Mol        Cal/Mol-Kelvin    Cal/Mol-Kelvin
 Total                  146.327              5.962            -26.327
 Electronic               0.000              0.000              0.000
 Translational            0.000              2.981            -20.883
 Rotational               0.000              2.981             -5.444
 Vibrational            146.327              0.000              0.000

 Optimization completed.
    -- Stationary point found.
 Normal termination of Gaussian 16 at Mon Oct 14 12:24:17 2019.
