 Gaussian 16, Revision A.03,
 Gaussian 16:  ES64L-G16RevA.03 25-Dec-2016

 -------------------------------------------------------------------
 #p opt freq m062x/6-311++g(d,p) geom=connectivity temperature=0.001
 -------------------------------------------------------------------

 -----------------------
 Nitro quinoline n oxide
 -----------------------
 Symbolic Z-matrix:
 Charge =  0 Multiplicity = 1

 SCF Done:  E(RM062X) =  -606.297615986     A.U. after   18 cycles
 SCF Done:  E(RM062X) =  -606.327187407     A.U. after   17 cycles
 SCF Done:  E(RM062X) =  -606.335506596     A.U. after   16 cycles
 SCF Done:  E(RM062X) =  -606.335884243     A.U. after   16 cycles
 SCF Done:  E(RM062X) =  -606.336390402     A.U. after   16 cycles
 SCF Done:  E(RM062X) =  -606.336825727     A.U. after   16 cycles
 SCF Done:  E(RM062X) =  -606.337038573     A.U. after   16 cycles
 SCF Done:  E(RM062X) =  -606.337416961     A.U. after   16 cycles
 SCF Done:  E(RM062X) =  -606.337571973     A.U. after   16 cycles
 SCF Done:  E(RM062X) =  -606.337812880     A.U. after   16 cycles
 SCF Done:  E(RM062X) =  -606.337839977     A.U. after   15 cycles
 SCF Done:  E(RM062X) =  -606.337851108     A.U. after   16 cycles
 SCF Done:  E(RM062X) =  -606.337853459     A.U. after   13 cycles
 Optimization completed.
    -- Stationary point found.
 Normal termination of Gaussian 16 at Mon Oct 14 11:35:23 2019.

 ----------------------------------------------------------------------
 #P Geom=AllCheck Guess=TCheck SCRF=Check GenChk RM062X/6-311++G(d,p) F
 req
 ----------------------------------------------------------------------

 Structure from the checkpoint file:  "10.chk"
 -----------------------
 Nitro quinoline n oxide
 -----------------------
 Charge =  0 Multiplicity = 1

                         Standard orientation:
 ---------------------------------------------------------------------
 Center     Atomic      Atomic             Coordinates (Angstroms)
 Number     Number       Type             X           Y           Z
 ---------------------------------------------------------------------
      1          6           0        0.289663   -0.218983   -0.000112
      2          6           0        1.269073    0.818674   -0.026937
      3          7           0        0.958884    2.142771   -0.082272
      4          6           0       -0.300730    2.488638   -0.085786
      5          6           0       -1.367582    1.561415   -0.039907
      6          6           0       -1.053913    0.235909   -0.015879
      7          6           0        0.720121   -1.569993    0.082865
      8          6           0        2.057679   -1.859249    0.124383
      9          6           0        3.030555   -0.833212    0.081807
     10          6           0        2.644725    0.475720    0.008863
     11          7           0       -2.191723   -0.712803   -0.012732
     12          8           0       -3.191168   -0.370023    0.576863
     13          8           0       -2.058475   -1.752320   -0.619547
     14          1           0       -0.519074    3.551310   -0.127045
     15          1           0       -2.399370    1.885138   -0.029602
     16          1           0       -0.008163   -2.366751    0.104085
     17          1           0        2.375255   -2.892878    0.189408
     18          1           0        4.082314   -1.090836    0.111569
     19          1           0        3.358511    1.289466   -0.017692
 ---------------------------------------------------------------------

 SCF Done:  E(RM062X) =  -606.337853459     A.U. after    2 cycles

 The electronic state is 1-A.
 Alpha  occ. eigenvalues --  -19.68123 -19.68117 -15.02069 -14.77839 -10.63917
 Alpha  occ. eigenvalues --  -10.61057 -10.60987 -10.59824 -10.59072 -10.57169
 Alpha  occ. eigenvalues --  -10.57081 -10.57019 -10.56644  -1.39726  -1.20990
 Alpha  occ. eigenvalues --   -1.09260  -0.98956  -0.97149  -0.88191  -0.87221
 Alpha  occ. eigenvalues --   -0.83780  -0.75200  -0.74449  -0.70334  -0.66076
 Alpha  occ. eigenvalues --   -0.65308  -0.63194  -0.62517  -0.60801  -0.57509
 Alpha  occ. eigenvalues --   -0.55378  -0.52791  -0.52272  -0.51962  -0.50888
 Alpha  occ. eigenvalues --   -0.44732  -0.44044  -0.43812  -0.41879  -0.41023
 Alpha  occ. eigenvalues --   -0.39811  -0.38849  -0.35389  -0.33210  -0.31255
 Alpha virt. eigenvalues --   -0.07829  -0.02519  -0.02073  -0.00612   0.00115
 Alpha virt. eigenvalues --    0.01124   0.02285   0.02654   0.02846   0.04385
 Alpha virt. eigenvalues --    0.04488   0.05078   0.06616   0.07181   0.07756

 Mulliken charges:
               1
     1  C    3.728762
     2  C   -2.536976
     3  N    0.160728
     4  C   -0.199771
     5  C    0.896923
     6  C   -2.386205
     7  C    0.113858
     8  C   -0.312596
     9  C   -0.357776
    10  C   -0.414520
    11  N   -0.150124
    12  O    0.026496
    13  O    0.013918
    14  H    0.236987
    15  H    0.297893
    16  H    0.214974
    17  H    0.216100
    18  H    0.214280
    19  H    0.237049
 Sum of Mulliken charges =   0.00000

 Dipole moment (field-independent basis, Debye):
    X=              2.4482    Y=              0.8359    Z=              0.1032  Tot=              2.5890
 Quadrupole moment (field-independent basis, Debye-Ang):
   XX=            -75.8140   YY=            -70.5832   ZZ=            -77.8617
   XY=            -12.0131   XZ=              1.6331   YZ=             -2.0554

  Exact polarizability: 159.267 -17.416 145.423  -2.508   1.020  66.175
 Approx polarizability: 205.722 -26.985 205.718  -6.820   5.888  93.972

                      1                      2                      3
                      A                      A                      A
 Frequencies --     60.9584               100.0832               177.5110
 Red. masses --     13.0102                 4.9831                 4.3849
 Frc consts  --      0.0285                 0.0294                 0.0814
 IR Inten    --      0.2126                 2.4881                 5.9125

                      4                      5                      6
                      A                      A                      A
 Frequencies --    212.9370               218.9987               362.2534
 Red. masses --      6.6094                 6.6847                 9.6507
 Frc consts  --      0.1766                 0.1889                 0.7462
 IR Inten    --      2.6129                 1.9021                 2.3123

                      7                      8                      9
                      A                      A                      A
 Frequencies --    369.7177               419.6381               472.0313
 Red. masses --      6.5609                 4.1341                 3.1335
 Frc consts  --      0.5284                 0.4289                 0.4114
 IR Inten    --      1.6323                 4.6924                 1.3972

                     10                     11                     12
                      A                      A                      A
 Frequencies --    482.7165               528.7077               545.3090
 Red. masses --      4.8212                 6.2497                 7.7734
 Frc consts  --      0.6619                 1.0293                 1.3619
 IR Inten    --      4.3609                 2.5938                 0.2084

                     13                     14                     15
                      A                      A                      A
 Frequencies --    616.3640               650.0928               672.3105
 Red. masses --      4.5497                 4.3288                 6.9265
 Frc consts  --      1.0184                 1.0779                 1.8446
 IR Inten    --      2.3674                 3.0260                20.4030

                     16                     17                     18
                      A                      A                      A
 Frequencies --    759.3408               794.1829               802.6737
 Red. masses --      2.4972                 3.1273                 2.0681
 Frc consts  --      0.8483                 1.1622                 0.7851
 IR Inten    --      5.6330                 3.9897                70.1696

                     19                     20                     21
                      A                      A                      A
 Frequencies --    821.4621               826.8556               885.9751
 Red. masses --      6.7180                 5.5134                 1.4009
 Frc consts  --      2.6709                 2.2209                 0.6479
 IR Inten    --     28.4006                 1.5085                 7.0276

                     22                     23                     24
                      A                      A                      A
 Frequencies --    901.0649               903.8831               996.4505
 Red. masses --      1.6637                 7.7997                 1.4077
 Frc consts  --      0.7959                 3.7545                 0.8235
 IR Inten    --     15.3493                11.0295                 0.7798

                     25                     26                     27
                      A                      A                      A
 Frequencies --   1004.8106              1023.1900              1023.9915
 Red. masses --      1.3591                 1.5866                 3.0382
 Frc consts  --      0.8085                 0.9787                 1.8770
 IR Inten    --      1.3182                 1.4204                 4.5006

                     28                     29                     30
                      A                      A                      A
 Frequencies --   1056.1785              1090.4109              1164.9002
 Red. masses --      2.2896                 2.2753                 1.2480
 Frc consts  --      1.5048                 1.5939                 0.9978
 IR Inten    --      6.1902                 6.3983                 3.0974

                     31                     32                     33
                      A                      A                      A
 Frequencies --   1186.0062              1230.8974              1260.5207
 Red. masses --      1.5335                 1.7157                 2.0855
 Frc consts  --      1.2709                 1.5316                 1.9524
 IR Inten    --     11.8507                 7.4524                 1.7390

                     34                     35                     36
                      A                      A                      A
 Frequencies --   1292.1992              1356.3692              1394.9086
 Red. masses --      1.6448                 4.2755                 3.7365
 Frc consts  --      1.6181                 4.6344                 4.2835
 IR Inten    --      1.9111                 1.4561                28.4131

                     37                     38                     39
                      A                      A                      A
 Frequencies --   1424.0761              1466.9365              1475.0550
 Red. masses --      2.0026                 2.4784                14.3820
 Frc consts  --      2.3928                 3.1422                18.4368
 IR Inten    --      5.7697                16.0044               184.4490

                     40                     41                     42
                      A                      A                      A
 Frequencies --   1510.8139              1558.0808              1637.7706
 Red. masses --      2.9520                 3.8373                 7.6226
 Frc consts  --      3.9700                 5.4886                12.0464
 IR Inten    --      5.0227                32.6188                 8.6426

                     43                     44                     45
                      A                      A                      A
 Frequencies --   1675.7242              1695.7626              1717.1893
 Red. masses --      8.3898                 6.6857                11.0003
 Frc consts  --     13.8806                11.3273                19.1114
 IR Inten    --    164.5017                74.8492               142.1141

                     46                     47                     48
                      A                      A                      A
 Frequencies --   3191.6252              3210.5927              3222.8375
 Red. masses --      1.0914                 1.0879                 1.0920
 Frc consts  --      6.5505                 6.6073                 6.6826
 IR Inten    --     10.4074                 2.9458                 2.6597

                     49                     50                     51
                      A                      A                      A
 Frequencies --   3235.9825              3251.4665              3262.4163
 Red. masses --      1.0973                 1.0944                 1.0938
 Frc consts  --      6.7700                 6.8170                 6.8589
 IR Inten    --      2.5341                 5.0381                 2.7304

 - Thermochemistry -
 -------------------
 Temperature     0.001 Kelvin.  Pressure   1.00000 Atm.
 Atom     1 has atomic number  6 and mass  12.00000

 Molecular mass:   174.04293 amu.
 Principal axes and moments of inertia in atomic units:
                           1         2         3
     Eigenvalues --  1294.389332397.934933605.92801
           X            0.99908  -0.04277   0.00160
           Y            0.04278   0.99908  -0.00428
           Z           -0.00142   0.00434   0.99999
 This molecule is an asymmetric top.
 Rotational symmetry number  1.
 Warning -- assumption of classical behavior for rotation
           may cause significant error
 Rotational temperatures (Kelvin)      0.06691     0.03612     0.02402
 Rotational constants (GHZ):           1.39428     0.75262     0.50049
 Zero-point vibrational energy     366070.6 (Joules/Mol)
                                   87.49298 (Kcal/Mol)
 Vibrational temperatures:     87.71   144.00   255.40   306.37   315.09
          (Kelvin)            521.20   531.94   603.77   679.15   694.52
                              760.69   784.58   886.81   935.34   967.30
                             1092.52  1142.65  1154.87  1181.90  1189.66
                             1274.72  1296.43  1300.49  1433.67  1445.70
                             1472.14  1473.30  1519.61  1568.86  1676.03
                             1706.40  1770.99  1813.61  1859.19  1951.51
                             2006.96  2048.93  2110.59  2122.28  2173.72
                             2241.73  2356.39  2410.99  2439.82  2470.65
                             4592.04  4619.33  4636.94  4655.86  4678.14
                             4693.89

 Zero-point correction=                           0.139429 (Hartree/Particle)
 Thermal correction to Energy=                    0.139429
 Thermal correction to Enthalpy=                  0.139429
 Thermal correction to Gibbs Free Energy=         0.139429
 Sum of electronic and zero-point Energies=           -606.198425
 Sum of electronic and thermal Energies=              -606.198425
 Sum of electronic and thermal Enthalpies=            -606.198425
 Sum of electronic and thermal Free Energies=         -606.198424

                     E (Thermal)             CV                S
                      KCal/Mol        Cal/Mol-Kelvin    Cal/Mol-Kelvin
 Total                   87.493              5.962            -28.035
 Electronic               0.000              0.000              0.000
 Translational            0.000              2.981            -21.254
 Rotational               0.000              2.981             -6.781
 Vibrational             87.493              0.000              0.000

 Optimization completed.
    -- Stationary point found.
 Normal termination of Gaussian 16 at Mon Oct 14 11:38:37 2019.
