 Gaussian 16, Revision A.03,
 Gaussian 16:  ES64L-G16RevA.03 25-Dec-2016

 -------------------------------------------------------------------
 #p opt freq m062x/6-311++g(d,p) geom=connectivity temperature=0.001
 -------------------------------------------------------------------

 -----------------------
 Nitro quinoline n oxide
 -----------------------
 Symbolic Z-matrix:
 Charge =  1 Multiplicity = 1

 SCF Done:  E(RM062X) =  -606.590024147     A.U. after   20 cycles
 SCF Done:  E(RM062X) =  -606.626979750     A.U. after   16 cycles
 SCF Done:  E(RM062X) =  -606.640959846     A.U. after   16 cycles
 SCF Done:  E(RM062X) =  -606.642116114     A.U. after   16 cycles
 SCF Done:  E(RM062X) =  -606.642550108     A.U. after   14 cycles
 SCF Done:  E(RM062X) =  -606.642778586     A.U. after   14 cycles
 SCF Done:  E(RM062X) =  -606.642795082     A.U. after   13 cycles
 SCF Done:  E(RM062X) =  -606.642804968     A.U. after   13 cycles
 SCF Done:  E(RM062X) =  -606.642807697     A.U. after   12 cycles
 SCF Done:  E(RM062X) =  -606.642809464     A.U. after   12 cycles
 SCF Done:  E(RM062X) =  -606.642810614     A.U. after   12 cycles
 SCF Done:  E(RM062X) =  -606.642812806     A.U. after   13 cycles
 SCF Done:  E(RM062X) =  -606.642815604     A.U. after   13 cycles
 SCF Done:  E(RM062X) =  -606.642817062     A.U. after   12 cycles
 SCF Done:  E(RM062X) =  -606.642817812     A.U. after   12 cycles
 SCF Done:  E(RM062X) =  -606.642817915     A.U. after   12 cycles
 Optimization completed.
    -- Stationary point found.
 Normal termination of Gaussian 16 at Thu Jan  2 15:33:45 2020.

 ----------------------------------------------------------------------
 #P Geom=AllCheck Guess=TCheck SCRF=Check GenChk RM062X/6-311++G(d,p) F
 req
 ----------------------------------------------------------------------

 Structure from the checkpoint file:  "10_p_b.chk"
 -----------------------
 Nitro quinoline n oxide
 -----------------------
 Charge =  1 Multiplicity = 1

                         Standard orientation:
 ---------------------------------------------------------------------
 Center     Atomic      Atomic             Coordinates (Angstroms)
 Number     Number       Type             X           Y           Z
 ---------------------------------------------------------------------
      1          6           0        0.313556   -0.245006   -0.000017
      2          6           0        1.300387    0.806458    0.000024
      3          7           0        1.003522    2.118763   -0.000029
      4          6           0       -0.254904    2.514173   -0.000125
      5          6           0       -1.319873    1.615755   -0.000093
      6          6           0       -1.034391    0.252439   -0.000031
      7          6           0        0.773034   -1.576606   -0.000034
      8          6           0        2.128019   -1.841965    0.000014
      9          6           0        3.094178   -0.817462    0.000086
     10          6           0        2.685107    0.486262    0.000084
     11          7           0       -2.187813   -0.560414    0.000051
     12          8           0       -3.305781   -0.167039    0.000346
     13          8           0       -1.975376   -1.870211   -0.000268
     14          1           0       -0.439879    3.581994   -0.000155
     15          1           0       -2.342730    1.969068   -0.000115
     16          1           0        0.092952   -2.410169   -0.000088
     17          1           0        2.451527   -2.876109   -0.000014
     18          1           0        4.147395   -1.067079    0.000139
     19          1           0        3.379077    1.317398    0.000129
     20          1           0       -2.859739   -2.289846   -0.000127
 ---------------------------------------------------------------------

 SCF Done:  E(RM062X) =  -606.642817915     A.U. after    1 cycles

 The electronic state is 1-A.
 Alpha  occ. eigenvalues --  -19.93793 -19.91572 -15.23383 -14.93514 -10.81187
 Alpha  occ. eigenvalues --  -10.75755 -10.75703 -10.75643 -10.75120 -10.71491
 Alpha  occ. eigenvalues --  -10.71326 -10.70592 -10.70089  -1.61886  -1.43889
 Alpha  occ. eigenvalues --   -1.24561  -1.19034  -1.12225  -1.05996  -1.02585
 Alpha  occ. eigenvalues --   -1.00803  -0.94656  -0.89808  -0.88691  -0.87283
 Alpha  occ. eigenvalues --   -0.85923  -0.81559  -0.78083  -0.76941  -0.75756
 Alpha  occ. eigenvalues --   -0.71599  -0.69682  -0.67039  -0.66682  -0.66680
 Alpha  occ. eigenvalues --   -0.65535  -0.64614  -0.62380  -0.58209  -0.57683
 Alpha  occ. eigenvalues --   -0.57597  -0.55890  -0.50018  -0.47569  -0.45401
 Alpha virt. eigenvalues --   -0.29776  -0.18084  -0.16033  -0.14094  -0.11234
 Alpha virt. eigenvalues --   -0.10769  -0.09735  -0.08743  -0.08052  -0.07482
 Alpha virt. eigenvalues --   -0.07189  -0.05566  -0.04573  -0.04403  -0.04096

 Mulliken charges:
               1
     1  C    2.059855
     2  C   -0.786647
     3  N    0.237886
     4  C   -0.366569
     5  C   -0.087773
     6  C   -0.838305
     7  C   -0.524644
     8  C   -0.161221
     9  C   -0.159224
    10  C   -0.461114
    11  N   -0.235947
    12  O    0.168649
    13  O    0.144042
    14  H    0.284141
    15  H    0.337051
    16  H    0.241572
    17  H    0.259869
    18  H    0.258400
    19  H    0.275519
    20  H    0.354460
 Sum of Mulliken charges =   1.00000

 Dipole moment (field-independent basis, Debye):
    X=             -3.2663    Y=             -2.6973    Z=             -0.0002  Tot=              4.2360
 Quadrupole moment (field-independent basis, Debye-Ang):
   XX=            -38.4859   YY=            -48.9617   ZZ=            -74.4594
   XY=              0.9741   XZ=              0.0016   YZ=             -0.0006

  Exact polarizability: 208.826  -9.528 148.493  -0.001  -0.001  57.163
 Approx polarizability: 291.640 -15.687 213.932  -0.004   0.000  79.172

                      1                      2                      3
                      A                      A                      A
 Frequencies --     17.0428                75.6962               178.1229
 Red. masses --      9.1675                 4.7822                 4.2311
 Frc consts  --      0.0016                 0.0161                 0.0791
 IR Inten    --      0.1696                 0.0010                 6.5085

                      4                      5                      6
                      A                      A                      A
 Frequencies --    212.2163               245.0286               361.1796
 Red. masses --      4.8086                 6.7391                 6.7110
 Frc consts  --      0.1276                 0.2384                 0.5158
 IR Inten    --      0.4436                 0.1832                10.8639

                      7                      8                      9
                      A                      A                      A
 Frequencies --    388.1143               398.1105               450.1264
 Red. masses --      9.8301                 3.5804                 3.1878
 Frc consts  --      0.8724                 0.3343                 0.3805
 IR Inten    --      0.1555                11.7134                 0.2007

                     10                     11                     12
                      A                      A                      A
 Frequencies --    478.5014               493.8591               537.3899
 Red. masses --      2.0735                 6.0207                 1.6057
 Frc consts  --      0.2797                 0.8652                 0.2732
 IR Inten    --     29.2363                 4.1721               101.1745

                     13                     14                     15
                      A                      A                      A
 Frequencies --    539.7150               586.3176               609.8013
 Red. masses --      8.0326                 6.7790                 3.6224
 Frc consts  --      1.3786                 1.3730                 0.7936
 IR Inten    --     32.8151                17.3250                 1.3597

                     16                     17                     18
                      A                      A                      A
 Frequencies --    657.3434               719.1911               739.4643
 Red. masses --      6.4773                 6.7425                 4.1588
 Frc consts  --      1.6490                 2.0548                 1.3398
 IR Inten    --      6.8768                 9.7581                 6.6159

                     19                     20                     21
                      A                      A                      A
 Frequencies --    758.0267               797.0136               821.7697
 Red. masses --      4.9638                 1.4571                 5.5548
 Frc consts  --      1.6805                 0.5453                 2.2101
 IR Inten    --     12.6344                73.4126                14.6854

                     22                     23                     24
                      A                      A                      A
 Frequencies --    866.9626               868.0876               895.0598
 Red. masses --      1.3124                 6.0122                 1.3579
 Frc consts  --      0.5812                 2.6694                 0.6410
 IR Inten    --     22.6305                19.3472                 2.8402

                     25                     26                     27
                      A                      A                      A
 Frequencies --   1005.3660              1015.3145              1015.6324
 Red. masses --      1.3719                 1.3509                 5.9736
 Frc consts  --      0.8170                 0.8205                 3.6304
 IR Inten    --      0.5219                 1.6247               189.3958

                     28                     29                     30
                      A                      A                      A
 Frequencies --   1037.3835              1068.8288              1120.1670
 Red. masses --      1.3283                 2.2896                 2.6561
 Frc consts  --      0.8422                 1.5411                 1.9636
 IR Inten    --      0.1274                 4.9026               263.0798

                     31                     32                     33
                      A                      A                      A
 Frequencies --   1159.9171              1171.7703              1189.5442
 Red. masses --      2.8004                 1.6534                 1.6936
 Frc consts  --      2.2199                 1.3376                 1.4120
 IR Inten    --    536.9843               335.4436                73.6237

                     34                     35                     36
                      A                      A                      A
 Frequencies --   1222.1794              1277.7091              1298.0998
 Red. masses --      1.5483                 1.9325                 1.7043
 Frc consts  --      1.3626                 1.8588                 1.6920
 IR Inten    --     80.5188                81.5422                22.3809

                     37                     38                     39
                      A                      A                      A
 Frequencies --   1343.2410              1373.2665              1422.0350
 Red. masses --      3.6038                 5.0882                 1.8653
 Frc consts  --      3.8310                 5.6536                 2.2223
 IR Inten    --    229.6066                87.1680                47.8859

                     40                     41                     42
                      A                      A                      A
 Frequencies --   1461.7722              1479.1574              1502.3596
 Red. masses --      2.2892                 2.0698                 2.4001
 Frc consts  --      2.8820                 2.6682                 3.1917
 IR Inten    --     46.9031                 4.6820                22.7301

                     43                     44                     45
                      A                      A                      A
 Frequencies --   1556.5979              1588.5701              1615.7302
 Red. masses --      3.4618                 5.3777                 6.6383
 Frc consts  --      4.9420                 7.9958                10.2105
 IR Inten    --    166.0248                70.3343                54.0963

                     46                     47                     48
                      A                      A                      A
 Frequencies --   1676.2626              1744.0984              3219.6864
 Red. masses --      5.9294                 6.3129                 1.0932
 Frc consts  --      9.8163                11.3141                 6.6770
 IR Inten    --     19.2723               447.2152                 1.6080

                     49                     50                     51
                      A                      A                      A
 Frequencies --   3222.3226              3232.5308              3243.5535
 Red. masses --      1.0906                 1.0918                 1.0995
 Frc consts  --      6.6722                 6.7220                 6.8152
 IR Inten    --      0.7769                 3.2841                 2.9616

                     52                     53                     54
                      A                      A                      A
 Frequencies --   3247.3188              3312.6862              3677.0312
 Red. masses --      1.0955                 1.0909                 1.0665
 Frc consts  --      6.8064                 7.0535                 8.4961
 IR Inten    --     21.7647                 1.5674               457.2987

 - Thermochemistry -
 -------------------
 Temperature     0.001 Kelvin.  Pressure   1.00000 Atm.
 Atom     1 has atomic number  6 and mass  12.00000

 Molecular mass:   175.05075 amu.
 Principal axes and moments of inertia in atomic units:
                           1         2         3
     Eigenvalues --  1287.612182450.334743737.94690
           X            0.99978  -0.02110   0.00000
           Y            0.02110   0.99978  -0.00000
           Z           -0.00000   0.00000   1.00000
 This molecule is an asymmetric top.
 Rotational symmetry number  1.
 Warning -- assumption of classical behavior for rotation
           may cause significant error
 Rotational temperatures (Kelvin)      0.06727     0.03535     0.02317
 Rotational constants (GHZ):           1.40162     0.73653     0.48282
 Zero-point vibrational energy     395929.7 (Joules/Mol)
                                   94.62946 (Kcal/Mol)
 Vibrational temperatures:     24.52   108.91   256.28   305.33   352.54
          (Kelvin)            519.66   558.41   572.79   647.63   688.46
                              710.55   773.18   776.53   843.58   877.37
                              945.77  1034.76  1063.92  1090.63  1146.72
                             1182.34  1247.37  1248.98  1287.79  1446.50
                             1460.81  1461.27  1492.56  1537.81  1611.67
                             1668.86  1685.92  1711.49  1758.44  1838.34
                             1867.68  1932.62  1975.82  2045.99  2103.16
                             2128.18  2161.56  2239.60  2285.60  2324.68
                             2411.77  2509.37  4632.41  4636.20  4650.89
                             4666.75  4672.17  4766.22  5290.43

 Zero-point correction=                           0.150802 (Hartree/Particle)
 Thermal correction to Energy=                    0.150802
 Thermal correction to Enthalpy=                  0.150802
 Thermal correction to Gibbs Free Energy=         0.150802
 Sum of electronic and zero-point Energies=           -606.492016
 Sum of electronic and thermal Energies=              -606.492016
 Sum of electronic and thermal Enthalpies=            -606.492016
 Sum of electronic and thermal Free Energies=         -606.492016

                     E (Thermal)             CV                S
                      KCal/Mol        Cal/Mol-Kelvin    Cal/Mol-Kelvin
 Total                   94.629              5.962            -27.965
 Electronic               0.000              0.000              0.000
 Translational            0.000              2.981            -21.237
 Rotational               0.000              2.981             -6.729
 Vibrational             94.629              0.000              0.000

 Optimization completed.
    -- Stationary point found.
 Normal termination of Gaussian 16 at Thu Jan  2 15:37:00 2020.
