 Gaussian 16, Revision A.03,
 Gaussian 16:  ES64L-G16RevA.03 25-Dec-2016

 -------------------------------------------------------------------
 #p opt freq m062x/6-311++g(d,p) geom=connectivity temperature=0.001
 -------------------------------------------------------------------

 ----------------------------
 Nitro quinoline n oxide plus
 ----------------------------
 Symbolic Z-matrix:
 Charge =  1 Multiplicity = 1

 SCF Done:  E(RM062X) =  -606.642542148     A.U. after   19 cycles
 SCF Done:  E(RM062X) =  -606.674247657     A.U. after   17 cycles
 SCF Done:  E(RM062X) =  -606.684184019     A.U. after   17 cycles
 SCF Done:  E(RM062X) =  -606.684146214     A.U. after   17 cycles
 SCF Done:  E(RM062X) =  -606.685403539     A.U. after   16 cycles
 SCF Done:  E(RM062X) =  -606.685617321     A.U. after   16 cycles
 SCF Done:  E(RM062X) =  -606.686073127     A.U. after   16 cycles
 SCF Done:  E(RM062X) =  -606.686775518     A.U. after   16 cycles
 SCF Done:  E(RM062X) =  -606.687151829     A.U. after   19 cycles
 SCF Done:  E(RM062X) =  -606.687320844     A.U. after   17 cycles
 SCF Done:  E(RM062X) =  -606.687367754     A.U. after   15 cycles
 SCF Done:  E(RM062X) =  -606.687374235     A.U. after   13 cycles
 SCF Done:  E(RM062X) =  -606.687374506     A.U. after   12 cycles
 Optimization completed.
    -- Stationary point found.
 Normal termination of Gaussian 16 at Mon Oct 14 11:33:06 2019.

 ----------------------------------------------------------------------
 #P Geom=AllCheck Guess=TCheck SCRF=Check GenChk RM062X/6-311++G(d,p) F
 req
 ----------------------------------------------------------------------

 Structure from the checkpoint file:  "10_p.chk"
 ----------------------------
 Nitro quinoline n oxide plus
 ----------------------------
 Charge =  1 Multiplicity = 1

                         Standard orientation:
 ---------------------------------------------------------------------
 Center     Atomic      Atomic             Coordinates (Angstroms)
 Number     Number       Type             X           Y           Z
 ---------------------------------------------------------------------
      1          6           0        0.270354   -0.244320    0.004916
      2          6           0        1.290040    0.748461   -0.017572
      3          7           0        0.915943    2.067504   -0.077356
      4          6           0       -0.342570    2.490864   -0.092662
      5          6           0       -1.383163    1.569135   -0.052025
      6          6           0       -1.056344    0.236107   -0.021351
      7          6           0        0.662167   -1.607638    0.084267
      8          6           0        1.991827   -1.927390    0.126674
      9          6           0        2.989090   -0.923675    0.089384
     10          6           0        2.651634    0.402662    0.019238
     11          7           0       -2.200202   -0.715722   -0.014546
     12          8           0       -3.121112   -0.424047    0.702963
     13          8           0       -2.107815   -1.671194   -0.743873
     14          1           0       -0.504355    3.560229   -0.135283
     15          1           0       -2.414773    1.894332   -0.041328
     16          1           0       -0.090708   -2.382550    0.100488
     17          1           0        2.289150   -2.966567    0.188451
     18          1           0        4.033553   -1.208698    0.120386
     19          1           0        3.410499    1.176524   -0.002545
     20          1           0        1.659656    2.760940   -0.104794
 ---------------------------------------------------------------------

 SCF Done:  E(RM062X) =  -606.687374506     A.U. after    1 cycles

 The electronic state is 1-A.
 Alpha  occ. eigenvalues --  -19.82111 -19.82010 -15.16230 -15.04669 -10.82097
 Alpha  occ. eigenvalues --  -10.81745 -10.80839 -10.77127 -10.76245 -10.73593
 Alpha  occ. eigenvalues --  -10.73340 -10.72966 -10.72295  -1.53983  -1.35511
 Alpha  occ. eigenvalues --   -1.33106  -1.17021  -1.14494  -1.06734  -1.03898
 Alpha  occ. eigenvalues --   -1.01738  -0.94062  -0.91639  -0.88920  -0.83473
 Alpha  occ. eigenvalues --   -0.82305  -0.81046  -0.79631  -0.77900  -0.75664
 Alpha  occ. eigenvalues --   -0.72628  -0.72245  -0.70482  -0.69602  -0.68632
 Alpha  occ. eigenvalues --   -0.67669  -0.61756  -0.60534  -0.60071  -0.59076
 Alpha  occ. eigenvalues --   -0.54203  -0.53588  -0.53309  -0.50265  -0.48075
 Alpha virt. eigenvalues --   -0.25577  -0.18935  -0.17280  -0.14606  -0.13982
 Alpha virt. eigenvalues --   -0.10897  -0.10804  -0.09377  -0.08729  -0.08217
 Alpha virt. eigenvalues --   -0.07434  -0.06960  -0.05971  -0.05298  -0.04754

 Mulliken charges:
               1
     1  C    1.816520
     2  C   -0.490380
     3  N    0.122540
     4  C   -0.086957
     5  C   -0.063953
     6  C   -0.484163
     7  C   -0.622067
     8  C   -0.509956
     9  C   -0.218873
    10  C   -0.517204
    11  N   -0.045967
    12  O    0.058010
    13  O    0.041997
    14  H    0.282470
    15  H    0.341102
    16  H    0.261365
    17  H    0.259257
    18  H    0.270493
    19  H    0.217182
    20  H    0.368582
 Sum of Mulliken charges =   1.00000

 Dipole moment (field-independent basis, Debye):
    X=              6.1992    Y=              6.3746    Z=             -0.0811  Tot=              8.8923
 Quadrupole moment (field-independent basis, Debye-Ang):
   XX=            -53.1786   YY=            -40.1818   ZZ=            -75.9966
   XY=             -5.8709   XZ=              1.5482   YZ=             -3.1199

  Exact polarizability: 153.137 -17.367 141.273  -2.700   1.228  62.913
 Approx polarizability: 200.818 -27.804 200.955  -7.550   6.873  91.993

                      1                      2                      3
                      A                      A                      A
 Frequencies --     56.6445                99.0568               175.2362
 Red. masses --     12.7997                 5.0438                 4.1944
 Frc consts  --      0.0242                 0.0292                 0.0759
 IR Inten    --      0.4637                 0.7839                 2.8043

                      4                      5                      6
                      A                      A                      A
 Frequencies --    205.0483               209.9801               348.1063
 Red. masses --      5.4090                 5.9973                 6.3626
 Frc consts  --      0.1340                 0.1558                 0.4543
 IR Inten    --      4.0048                 3.4586                 3.4859

                      7                      8                      9
                      A                      A                      A
 Frequencies --    358.3516               408.7960               458.3542
 Red. masses --      7.2430                 4.0898                 3.5747
 Frc consts  --      0.5480                 0.4027                 0.4425
 IR Inten    --      3.3039                 1.1009                13.5138

                     10                     11                     12
                      A                      A                      A
 Frequencies --    468.3294               521.6254               538.0717
 Red. masses --      3.6774                 6.2173                 7.2912
 Frc consts  --      0.4752                 0.9967                 1.2437
 IR Inten    --      0.6250                 8.7328                 0.6283

                     13                     14                     15
                      A                      A                      A
 Frequencies --    591.0790               657.6893               673.8913
 Red. masses --      3.6640                 5.0952                 6.5967
 Frc consts  --      0.7542                 1.2985                 1.7650
 IR Inten    --      1.2039                 3.2861                12.2886

                     16                     17                     18
                      A                      A                      A
 Frequencies --    741.6471               755.5400               802.8960
 Red. masses --      3.5922                 1.6057                 3.0295
 Frc consts  --      1.1641                 0.5401                 1.1506
 IR Inten    --      5.4388                 0.5613                10.0424

                     19                     20                     21
                      A                      A                      A
 Frequencies --    816.0938               818.3522               825.8307
 Red. masses --      2.7466                 1.8203                 5.4166
 Frc consts  --      1.0778                 0.7183                 2.1765
 IR Inten    --     60.0075               105.5659                18.7433

                     22                     23                     24
                      A                      A                      A
 Frequencies --    886.0551               900.2541               911.9978
 Red. masses --      1.4565                 6.2326                 1.5054
 Frc consts  --      0.6737                 2.9761                 0.7377
 IR Inten    --      2.7929                22.1474                 0.1475

                     25                     26                     27
                      A                      A                      A
 Frequencies --   1008.3678              1012.5531              1029.3646
 Red. masses --      1.3492                 1.3341                 6.3037
 Frc consts  --      0.8083                 0.8059                 3.9354
 IR Inten    --      2.0600                 1.2308                 6.9324

                     28                     29                     30
                      A                      A                      A
 Frequencies --   1039.6900              1058.2323              1127.5746
 Red. masses --      1.3325                 2.3262                 1.9026
 Frc consts  --      0.8487                 1.5348                 1.4252
 IR Inten    --      0.0736                 1.3172                 0.8239

                     31                     32                     33
                      A                      A                      A
 Frequencies --   1183.3844              1202.4454              1239.5733
 Red. masses --      1.3515                 1.3353                 1.9011
 Frc consts  --      1.1151                 1.1376                 1.7211
 IR Inten    --      4.9188                20.1946                 4.3163

                     34                     35                     36
                      A                      A                      A
 Frequencies --   1254.0244              1282.2170              1307.6794
 Red. masses --      1.6970                 1.7699                 1.7882
 Frc consts  --      1.5723                 1.7145                 1.8017
 IR Inten    --     18.9315                18.6748                 9.9567

                     37                     38                     39
                      A                      A                      A
 Frequencies --   1402.9222              1430.4608              1439.3562
 Red. masses --      3.8131                 3.1144                 2.2656
 Frc consts  --      4.4218                 3.7547                 2.7654
 IR Inten    --     71.4823                26.6747                61.7549

                     40                     41                     42
                      A                      A                      A
 Frequencies --   1466.2123              1502.7637              1527.8172
 Red. masses --     13.6201                 2.6286                 2.0930
 Frc consts  --     17.2513                 3.4975                 2.8785
 IR Inten    --    133.7064                 6.9547                 8.7501

                     43                     44                     45
                      A                      A                      A
 Frequencies --   1607.1857              1660.0687              1672.7651
 Red. masses --      3.2162                 6.4207                 5.0745
 Frc consts  --      4.8947                10.4252                 8.3660
 IR Inten    --     31.3157                84.8000                16.1949

                     46                     47                     48
                      A                      A                      A
 Frequencies --   1700.6228              1739.1223              3213.4015
 Red. masses --      5.4799                13.6653                 1.0916
 Frc consts  --      9.3377                24.3517                 6.6411
 IR Inten    --    103.9969               300.9465                 1.2861

                     49                     50                     51
                      A                      A                      A
 Frequencies --   3228.1390              3237.5024              3244.4527
 Red. masses --      1.0928                 1.0966                 1.0943
 Frc consts  --      6.7093                 6.7718                 6.7868
 IR Inten    --      0.1915                 6.6716                 8.0124

                     52                     53                     54
                      A                      A                      A
 Frequencies --   3254.3825              3258.1734              3565.0250
 Red. masses --      1.0989                 1.0959                 1.0801
 Frc consts  --      6.8574                 6.8545                 8.0879
 IR Inten    --     50.7714                10.9626               175.4289

 - Thermochemistry -
 -------------------
 Temperature     0.001 Kelvin.  Pressure   1.00000 Atm.
 Atom     1 has atomic number  6 and mass  12.00000

 Molecular mass:   175.05075 amu.
 Principal axes and moments of inertia in atomic units:
                           1         2         3
     Eigenvalues --  1332.465132389.472153597.33858
           X            0.99954  -0.03043   0.00148
           Y            0.03043   0.99952  -0.00528
           Z           -0.00132   0.00533   0.99998
 This molecule is an asymmetric top.
 Rotational symmetry number  1.
 Warning -- assumption of classical behavior for rotation
           may cause significant error
 Rotational temperatures (Kelvin)      0.06500     0.03625     0.02408
 Rotational constants (GHZ):           1.35444     0.75529     0.50169
 Zero-point vibrational energy     401493.1 (Joules/Mol)
                                   95.95916 (Kcal/Mol)
 Vibrational temperatures:     81.50   142.52   252.13   295.02   302.11
          (Kelvin)            500.85   515.59   588.17   659.47   673.82
                              750.50   774.17   850.43   946.27   969.58
                             1067.06  1087.05  1155.19  1174.18  1177.43
                             1188.19  1274.84  1295.26  1312.16  1450.82
                             1456.84  1481.03  1495.88  1522.56  1622.33
                             1702.63  1730.05  1783.47  1804.26  1844.82
                             1881.46  2018.49  2058.11  2070.91  2109.55
                             2162.14  2198.19  2312.38  2388.47  2406.74
                             2446.82  2502.21  4623.37  4644.57  4658.04
                             4668.04  4682.33  4687.78  5129.28

 Zero-point correction=                           0.152921 (Hartree/Particle)
 Thermal correction to Energy=                    0.152921
 Thermal correction to Enthalpy=                  0.152921
 Thermal correction to Gibbs Free Energy=         0.152921
 Sum of electronic and zero-point Energies=           -606.534454
 Sum of electronic and thermal Energies=              -606.534454
 Sum of electronic and thermal Enthalpies=            -606.534454
 Sum of electronic and thermal Free Energies=         -606.534454

                     E (Thermal)             CV                S
                      KCal/Mol        Cal/Mol-Kelvin    Cal/Mol-Kelvin
 Total                   95.959              5.962            -27.994
 Electronic               0.000              0.000              0.000
 Translational            0.000              2.981            -21.237
 Rotational               0.000              2.981             -6.758
 Vibrational             95.959              0.000              0.000

 Optimization completed.
    -- Stationary point found.
 Normal termination of Gaussian 16 at Mon Oct 14 11:36:35 2019.
