 Gaussian 16, Revision A.03,
 Gaussian 16:  ES64L-G16RevA.03 25-Dec-2016

 -------------------------------------------------------------------
 #p opt freq m062x/6-311++g(d,p) geom=connectivity temperature=0.001
 -------------------------------------------------------------------

 ------------------------
 diisobutyl_sulfoxide.sdf
 ------------------------
 Symbolic Z-matrix:
 Charge =  0 Multiplicity = 1

 SCF Done:  E(RM062X) =  -788.944987372     A.U. after   14 cycles
 SCF Done:  E(RM062X) =  -788.968063077     A.U. after   13 cycles
 SCF Done:  E(RM062X) =  -788.969840006     A.U. after   14 cycles
 SCF Done:  E(RM062X) =  -788.976148387     A.U. after   13 cycles
 SCF Done:  E(RM062X) =  -788.977130426     A.U. after   12 cycles
 SCF Done:  E(RM062X) =  -788.977385767     A.U. after   12 cycles
 SCF Done:  E(RM062X) =  -788.977480034     A.U. after   11 cycles
 SCF Done:  E(RM062X) =  -788.977555115     A.U. after   11 cycles
 SCF Done:  E(RM062X) =  -788.977563385     A.U. after   11 cycles
 SCF Done:  E(RM062X) =  -788.977564766     A.U. after   10 cycles
 SCF Done:  E(RM062X) =  -788.977565687     A.U. after   11 cycles
 SCF Done:  E(RM062X) =  -788.977565855     A.U. after   10 cycles
 SCF Done:  E(RM062X) =  -788.977565592     A.U. after   10 cycles
 SCF Done:  E(RM062X) =  -788.977565624     A.U. after    8 cycles
 SCF Done:  E(RM062X) =  -788.977565940     A.U. after   10 cycles
 SCF Done:  E(RM062X) =  -788.977565667     A.U. after   10 cycles
 Optimization completed.
    -- Stationary point found.
 Normal termination of Gaussian 16 at Sun Sep 20 15:45:27 2020.

 ----------------------------------------------------------------------
 #P Geom=AllCheck Guess=TCheck SCRF=Check GenChk RM062X/6-311++G(d,p) F
 req
 ----------------------------------------------------------------------

 Structure from the checkpoint file:  "11.chk"
 ------------------------
 diisobutyl_sulfoxide.sdf
 ------------------------
 Charge =  0 Multiplicity = 1

                         Standard orientation:
 ---------------------------------------------------------------------
 Center     Atomic      Atomic             Coordinates (Angstroms)
 Number     Number       Type             X           Y           Z
 ---------------------------------------------------------------------
      1         16           0       -0.012085   -1.408044    0.434905
      2          8           0        0.781904   -2.325696   -0.466057
      3          6           0        1.064127   -0.019974    0.954508
      4          1           0        0.454565    0.558508    1.657041
      5          1           0        1.848549   -0.516962    1.534110
      6          6           0       -1.126936   -0.497695   -0.689045
      7          1           0       -0.511452   -0.200272   -1.541882
      8          1           0       -1.819013   -1.271427   -1.034929
      9          6           0       -1.890603    0.671321   -0.068444
     10          6           0       -2.799355    1.293867   -1.130591
     11          1           0       -3.329811    2.158614   -0.725799
     12          1           0       -2.228179    1.621285   -2.002342
     13          1           0       -3.545610    0.568289   -1.467142
     14          6           0       -2.704837    0.236115    1.151667
     15          1           0       -3.407918   -0.555745    0.875987
     16          1           0       -2.072344   -0.148682    1.954945
     17          1           0       -3.280719    1.075522    1.547128
     18          6           0        1.685013    0.873018   -0.120839
     19          6           0        2.378026    2.053335    0.566311
     20          1           0        2.828977    2.716313   -0.175581
     21          1           0        1.678135    2.639861    1.167275
     22          1           0        3.176077    1.697274    1.224726
     23          6           0        2.669289    0.109804   -1.009091
     24          1           0        3.102780    0.782653   -1.753067
     25          1           0        3.485897   -0.292807   -0.401704
     26          1           0        2.193930   -0.731961   -1.512152
     27          1           0        0.885228    1.280475   -0.748774
     28          1           0       -1.169313    1.434595    0.245272
 ---------------------------------------------------------------------

 SCF Done:  E(RM062X) =  -788.977565667     A.U. after    1 cycles

 The electronic state is 1-A.
 Alpha  occ. eigenvalues --  -89.98857 -19.57042 -10.56982 -10.56876 -10.56586
 Alpha  occ. eigenvalues --  -10.55680 -10.54051 -10.53999 -10.53507 -10.51833
 Alpha  occ. eigenvalues --   -8.34542  -6.26602  -6.26532  -6.26173  -1.12008
 Alpha  occ. eigenvalues --   -0.94193  -0.92125  -0.85017  -0.79867  -0.79193
 Alpha  occ. eigenvalues --   -0.77935  -0.70733  -0.66638  -0.64517  -0.56977
 Alpha  occ. eigenvalues --   -0.54977  -0.54370  -0.52670  -0.52012  -0.50001
 Alpha  occ. eigenvalues --   -0.48763  -0.46741  -0.46099  -0.45464  -0.45220
 Alpha  occ. eigenvalues --   -0.44389  -0.43617  -0.42267  -0.41322  -0.41002
 Alpha  occ. eigenvalues --   -0.40481  -0.39843  -0.39091  -0.32306  -0.28240
 Alpha virt. eigenvalues --   -0.01169   0.00235   0.00366   0.01087   0.02161
 Alpha virt. eigenvalues --    0.02413   0.02571   0.03227   0.03655   0.04231
 Alpha virt. eigenvalues --    0.04683   0.05079   0.05555   0.05773   0.06671

 Mulliken charges:
               1
     1  S    0.786264
     2  O   -0.446050
     3  C   -0.813532
     4  H    0.160548
     5  H    0.309275
     6  C   -0.706875
     7  H    0.240004
     8  H    0.272133
     9  C   -0.094540
    10  C   -0.567878
    11  H    0.165258
    12  H    0.156141
    13  H    0.161306
    14  C   -0.512245
    15  H    0.177990
    16  H    0.133087
    17  H    0.169905
    18  C    0.116193
    19  C   -0.564035
    20  H    0.175994
    21  H    0.146106
    22  H    0.152725
    23  C   -0.503254
    24  H    0.152960
    25  H    0.168635
    26  H    0.184645
    27  H    0.180750
    28  H    0.198491
 Sum of Mulliken charges =  -0.00000

 Dipole moment (field-independent basis, Debye):
    X=             -1.8576    Y=              4.2634    Z=              1.1360  Tot=              4.7873
 Quadrupole moment (field-independent basis, Debye-Ang):
   XX=            -70.0200   YY=            -84.0825   ZZ=            -72.5084
   XY=              4.3022   XZ=              2.6735   YZ=             -2.6900

  Exact polarizability: 132.337  -1.723 118.037   0.863   2.123 107.475
 Approx polarizability: 143.374  -4.216 146.013   2.009   5.508 137.018

                      1                      2                      3
                      A                      A                      A
 Frequencies --     22.9840                62.9611                82.0696
 Red. masses --      2.6660                 2.6839                 3.1095
 Frc consts  --      0.0008                 0.0063                 0.0123
 IR Inten    --      0.3527                 0.0622                 0.0895

                      4                      5                      6
                      A                      A                      A
 Frequencies --    144.3804               158.7147               202.3093
 Red. masses --      3.5891                 2.7990                 2.6481
 Frc consts  --      0.0441                 0.0415                 0.0639
 IR Inten    --      2.6946                 6.5605                 3.4171

                      7                      8                      9
                      A                      A                      A
 Frequencies --    232.4226               233.8125               247.8936
 Red. masses --      1.0545                 1.1355                 1.7244
 Frc consts  --      0.0336                 0.0366                 0.0624
 IR Inten    --      0.0695                 2.6673                 2.5779

                     10                     11                     12
                      A                      A                      A
 Frequencies --    254.7232               273.9180               305.9704
 Red. masses --      2.0404                 1.2217                 3.6769
 Frc consts  --      0.0780                 0.0540                 0.2028
 IR Inten    --      1.0144                 1.4518                 2.5465

                     13                     14                     15
                      A                      A                      A
 Frequencies --    316.4063               347.4653               360.9171
 Red. masses --      1.9926                 2.8638                 2.6217
 Frc consts  --      0.1175                 0.2037                 0.2012
 IR Inten    --      0.2582                 4.1293                 1.7094

                     16                     17                     18
                      A                      A                      A
 Frequencies --    418.9077               427.4985               448.4614
 Red. masses --      2.4026                 1.9040                 1.8800
 Frc consts  --      0.2484                 0.2050                 0.2228
 IR Inten    --      0.3655                 0.0643                 3.3009

                     19                     20                     21
                      A                      A                      A
 Frequencies --    477.6862               700.4394               776.2769
 Red. masses --      3.6157                 3.5587                 4.1583
 Frc consts  --      0.4861                 1.0287                 1.4764
 IR Inten    --     10.0588                 0.6569                 6.8993

                     22                     23                     24
                      A                      A                      A
 Frequencies --    832.2606               834.8255               852.2134
 Red. masses --      2.0123                 2.1105                 2.2725
 Frc consts  --      0.8212                 0.8666                 0.9724
 IR Inten    --      7.9822                 5.6118                 2.1708

                     25                     26                     27
                      A                      A                      A
 Frequencies --    893.2577               938.7438               941.0898
 Red. masses --      1.4474                 1.1591                 1.1615
 Frc consts  --      0.6804                 0.6018                 0.6061
 IR Inten    --      1.6657                 1.0062                 1.5331

                     28                     29                     30
                      A                      A                      A
 Frequencies --    975.2407               978.8374               981.5599
 Red. masses --      1.5917                 1.6784                 1.6032
 Frc consts  --      0.8919                 0.9475                 0.9101
 IR Inten    --      1.0738                 0.4300                 0.5065

                     31                     32                     33
                      A                      A                      A
 Frequencies --    983.1682              1041.6703              1086.1071
 Red. masses --      1.6892                 6.0654                 1.3614
 Frc consts  --      0.9621                 3.8776                 0.9462
 IR Inten    --      0.4861               140.9132                 6.8044

                     34                     35                     36
                      A                      A                      A
 Frequencies --   1110.1299              1146.9980              1153.8514
 Red. masses --      1.4965                 2.2158                 2.0406
 Frc consts  --      1.0866                 1.7175                 1.6007
 IR Inten    --     20.8212                 6.7454                 2.4165

                     37                     38                     39
                      A                      A                      A
 Frequencies --   1197.6377              1208.0517              1237.0833
 Red. masses --      1.6960                 1.8221                 1.4935
 Frc consts  --      1.4332                 1.5667                 1.3466
 IR Inten    --      9.6739                 3.0877                 1.2763

                     40                     41                     42
                      A                      A                      A
 Frequencies --   1253.4000              1275.3960              1297.3607
 Red. masses --      1.3633                 1.2849                 1.2957
 Frc consts  --      1.2619                 1.2314                 1.2849
 IR Inten    --      2.2906                 1.2337                 2.9994

                     43                     44                     45
                      A                      A                      A
 Frequencies --   1358.4880              1361.0994              1375.8157
 Red. masses --      1.4235                 1.3977                 1.4354
 Frc consts  --      1.5478                 1.5257                 1.6009
 IR Inten    --      1.7043                 0.5457                 1.8544

                     46                     47                     48
                      A                      A                      A
 Frequencies --   1385.4566              1405.6462              1407.5253
 Red. masses --      1.3347                 1.2750                 1.2920
 Frc consts  --      1.5094                 1.4843                 1.5081
 IR Inten    --      3.1107                 7.7051                11.0490

                     49                     50                     51
                      A                      A                      A
 Frequencies --   1426.9891              1428.4635              1453.1018
 Red. masses --      1.2397                 1.2270                 1.1023
 Frc consts  --      1.4873                 1.4751                 1.3714
 IR Inten    --      6.9654                12.7831                 9.5216

                     52                     53                     54
                      A                      A                      A
 Frequencies --   1471.4184              1490.3114              1490.8520
 Red. masses --      1.0894                 1.0412                 1.0430
 Frc consts  --      1.3897                 1.3625                 1.3659
 IR Inten    --      6.9970                 0.7761                 1.2794

                     55                     56                     57
                      A                      A                      A
 Frequencies --   1495.3663              1497.6478              1507.7069
 Red. masses --      1.0529                 1.0517                 1.0474
 Frc consts  --      1.3872                 1.3899                 1.4029
 IR Inten    --      8.4625                 5.1453                 8.8564

                     58                     59                     60
                      A                      A                      A
 Frequencies --   1510.2594              1514.2378              1515.5376
 Red. masses --      1.0610                 1.0476                 1.0572
 Frc consts  --      1.4258                 1.4153                 1.4306
 IR Inten    --      6.3810                15.5273                11.4933

                     61                     62                     63
                      A                      A                      A
 Frequencies --   3048.8476              3049.8553              3052.8415
 Red. masses --      1.0611                 1.0507                 1.0457
 Frc consts  --      5.8113                 5.7582                 5.7419
 IR Inten    --     15.2365                 8.3169                16.5753

                     64                     65                     66
                      A                      A                      A
 Frequencies --   3053.1654              3055.0455              3060.3682
 Red. masses --      1.0370                 1.0417                 1.0689
 Frc consts  --      5.6954                 5.7285                 5.8982
 IR Inten    --     15.0074                40.9551                 1.8815

                     67                     68                     69
                      A                      A                      A
 Frequencies --   3062.6404              3075.1109              3112.1431
 Red. masses --      1.0628                 1.0604                 1.1043
 Frc consts  --      5.8736                 5.9082                 6.3018
 IR Inten    --     11.0689                 9.5246                 2.5359

                     70                     71                     72
                      A                      A                      A
 Frequencies --   3119.1476              3123.5041              3123.9643
 Red. masses --      1.1016                 1.1017                 1.1018
 Frc consts  --      6.3149                 6.3326                 6.3353
 IR Inten    --      9.7541                 5.7549                35.0384

                     73                     74                     75
                      A                      A                      A
 Frequencies --   3125.8082              3130.7356              3131.4638
 Red. masses --      1.1034                 1.1031                 1.1022
 Frc consts  --      6.3517                 6.3701                 6.3681
 IR Inten    --     14.3378                14.6950                36.1233

                     76                     77                     78
                      A                      A                      A
 Frequencies --   3134.3254              3136.2656              3159.4524
 Red. masses --      1.1032                 1.1024                 1.1014
 Frc consts  --      6.3855                 6.3885                 6.4775
 IR Inten    --      9.6067                39.3375                 1.4177

 - Thermochemistry -
 -------------------
 Temperature     0.001 Kelvin.  Pressure   1.00000 Atm.
 Atom     1 has atomic number 16 and mass  31.97207

 Molecular mass:   162.10784 amu.
 Principal axes and moments of inertia in atomic units:
                           1         2         3
     Eigenvalues --  1345.700022389.108402983.50991
           X            0.99990   0.01423   0.00109
           Y           -0.01424   0.99989   0.00494
           Z           -0.00102  -0.00495   0.99999
 This molecule is an asymmetric top.
 Rotational symmetry number  1.
 Warning -- assumption of classical behavior for rotation
           may cause significant error
 Rotational temperatures (Kelvin)      0.06436     0.03625     0.02903
 Rotational constants (GHZ):           1.34112     0.75540     0.60491
 Zero-point vibrational energy     661329.8 (Joules/Mol)
                                  158.06162 (Kcal/Mol)
 Vibrational temperatures:     33.07    90.59   118.08   207.73   228.36
          (Kelvin)            291.08   334.40   336.40   356.66   366.49
                              394.11   440.22   455.24   499.93   519.28
                              602.71   615.08   645.24   687.28  1007.78
                             1116.89  1197.44  1201.13  1226.15  1285.20
                             1350.64  1354.02  1403.15  1408.33  1412.25
                             1414.56  1498.73  1562.67  1597.23  1650.27
                             1660.13  1723.13  1738.12  1779.89  1803.36
                             1835.01  1866.61  1954.56  1958.32  1979.49
                             1993.36  2022.41  2025.11  2053.12  2055.24
                             2090.69  2117.04  2144.23  2145.00  2151.50
                             2154.78  2169.25  2172.93  2178.65  2180.52
                             4386.61  4388.06  4392.36  4392.82  4395.53
                             4403.19  4406.46  4424.40  4477.68  4487.76
                             4494.03  4494.69  4497.34  4504.43  4505.48
                             4509.60  4512.39  4545.75

 Zero-point correction=                           0.251887 (Hartree/Particle)
 Thermal correction to Energy=                    0.251887
 Thermal correction to Enthalpy=                  0.251887
 Thermal correction to Gibbs Free Energy=         0.251887
 Sum of electronic and zero-point Energies=           -788.725678
 Sum of electronic and thermal Energies=              -788.725678
 Sum of electronic and thermal Enthalpies=            -788.725678
 Sum of electronic and thermal Free Energies=         -788.725678

                     E (Thermal)             CV                S
                      KCal/Mol        Cal/Mol-Kelvin    Cal/Mol-Kelvin
 Total                  158.062              5.962            -28.400
 Electronic               0.000              0.000              0.000
 Translational            0.000              2.981            -21.466
 Rotational               0.000              2.981             -6.934
 Vibrational            158.062              0.000              0.000

 Optimization completed.
    -- Stationary point found.
 Normal termination of Gaussian 16 at Sun Sep 20 15:50:35 2020.
