 Gaussian 16, Revision A.03,
 Gaussian 16:  ES64L-G16RevA.03 25-Dec-2016

 -------------------------------------------------------------------
 #p opt freq m062x/6-311++g(d,p) geom=connectivity temperature=0.001
 -------------------------------------------------------------------

 ----------------------------
 dodecyl_methyl_sulfoxide.sdf
 ----------------------------
 Symbolic Z-matrix:
 Charge =  0 Multiplicity = 1

 SCF Done:  E(RM062X) =  -946.118433131     A.U. after   16 cycles
 SCF Done:  E(RM062X) =  -946.153640607     A.U. after   14 cycles
 SCF Done:  E(RM062X) =  -946.182649879     A.U. after   14 cycles
 SCF Done:  E(RM062X) =  -946.185473619     A.U. after   12 cycles
 SCF Done:  E(RM062X) =  -946.185801887     A.U. after   12 cycles
 SCF Done:  E(RM062X) =  -946.185954084     A.U. after   12 cycles
 SCF Done:  E(RM062X) =  -946.186022364     A.U. after   12 cycles
 SCF Done:  E(RM062X) =  -946.186028702     A.U. after   11 cycles
 SCF Done:  E(RM062X) =  -946.186029502     A.U. after   10 cycles
 SCF Done:  E(RM062X) =  -946.186029600     A.U. after   10 cycles
 SCF Done:  E(RM062X) =  -946.186029601     A.U. after   10 cycles
 SCF Done:  E(RM062X) =  -946.186029599     A.U. after    9 cycles
 SCF Done:  E(RM062X) =  -946.186029597     A.U. after    8 cycles
 Optimization completed.
    -- Stationary point found.
 Normal termination of Gaussian 16 at Mon Oct 14 09:25:50 2019.

 ----------------------------------------------------------------------
 #P Geom=AllCheck Guess=TCheck SCRF=Check GenChk RM062X/6-311++G(d,p) F
 req
 ----------------------------------------------------------------------

 Structure from the checkpoint file:  "11.chk"
 ----------------------------
 dodecyl_methyl_sulfoxide.sdf
 ----------------------------
 Charge =  0 Multiplicity = 1

                         Standard orientation:
 ---------------------------------------------------------------------
 Center     Atomic      Atomic             Coordinates (Angstroms)
 Number     Number       Type             X           Y           Z
 ---------------------------------------------------------------------
      1          6           0       -8.520958   -0.217006    0.115123
      2          6           0       -7.226546    0.536681   -0.180140
      3          6           0       -5.981550   -0.292765    0.126635
      4          6           0       -4.678342    0.447481   -0.163644
      5          6           0       -3.434745   -0.384266    0.141015
      6          6           0       -2.131432    0.355318   -0.151274
      7          6           0       -0.888733   -0.479492    0.148364
      8          6           0        0.414263    0.259666   -0.146276
      9          6           0        1.654849   -0.577890    0.153611
     10          6           0        2.955965    0.164141   -0.154940
     11          6           0        4.180811   -0.673425    0.189026
     12         16           0        5.746027    0.000991   -0.456320
     13          6           0        5.770974    1.524249    0.526917
     14          8           0        6.834338   -0.873006    0.113350
     15          1           0       -9.400314    0.389300   -0.110595
     16          1           0       -8.582426   -1.131810   -0.480110
     17          1           0       -8.572386   -0.503371    1.168827
     18          1           0       -7.195669    1.461482    0.406072
     19          1           0       -7.206674    0.838253   -1.232989
     20          1           0       -6.011319   -1.219222   -0.459826
     21          1           0       -6.000200   -0.596089    1.180575
     22          1           0       -4.648620    1.372998    0.424081
     23          1           0       -4.661496    0.751637   -1.217239
     24          1           0       -3.465415   -1.309918   -0.446313
     25          1           0       -3.450919   -0.688032    1.194665
     26          1           0       -2.098809    1.279392    0.438468
     27          1           0       -2.116903    0.661494   -1.204258
     28          1           0       -0.922247   -1.403585   -0.441006
     29          1           0       -0.902215   -0.785221    1.201395
     30          1           0        0.448263    1.183673    0.443283
     31          1           0        0.428410    0.564428   -1.199573
     32          1           0        1.619826   -1.504370   -0.430489
     33          1           0        1.648148   -0.875263    1.208588
     34          1           0        2.971643    1.101390    0.409864
     35          1           0        2.976165    0.431309   -1.217961
     36          1           0        4.124894   -1.665318   -0.266184
     37          1           0        4.325250   -0.801659    1.265407
     38          1           0        6.750549    1.971011    0.363124
     39          1           0        4.990031    2.205638    0.190156
     40          1           0        5.653968    1.263895    1.579857
 ---------------------------------------------------------------------

 SCF Done:  E(RM062X) =  -946.186029597     A.U. after    1 cycles

 The electronic state is 1-A.
 Alpha  occ. eigenvalues --  -89.99357 -19.57262 -10.57158 -10.56800 -10.55809
 Alpha  occ. eigenvalues --  -10.54687 -10.54048 -10.53630 -10.53373 -10.53175
 Alpha  occ. eigenvalues --  -10.53045 -10.53039 -10.52919 -10.52289  -8.35034
 Alpha  occ. eigenvalues --   -6.27096  -6.27027  -6.26672  -1.12432  -0.93548
 Alpha  occ. eigenvalues --   -0.91770  -0.89861  -0.87454  -0.84893  -0.81735
 Alpha  occ. eigenvalues --   -0.77891  -0.73715  -0.69716  -0.67829  -0.67098
 Alpha  occ. eigenvalues --   -0.66329  -0.65855  -0.57942  -0.56277  -0.54632
 Alpha  occ. eigenvalues --   -0.53966  -0.52804  -0.51839  -0.50733  -0.50529
 Alpha  occ. eigenvalues --   -0.49332  -0.48689  -0.47864  -0.46918  -0.45969
 Alpha  occ. eigenvalues --   -0.45328  -0.44581  -0.43107  -0.42517  -0.42110
 Alpha  occ. eigenvalues --   -0.40911  -0.40698  -0.40553  -0.39532  -0.39466
 Alpha  occ. eigenvalues --   -0.38663  -0.38645  -0.38259  -0.35964  -0.32746
 Alpha  occ. eigenvalues --   -0.29032
 Alpha virt. eigenvalues --   -0.00975  -0.00246   0.00105   0.00201   0.00716
 Alpha virt. eigenvalues --    0.01266   0.01367   0.01821   0.02805   0.02926
 Alpha virt. eigenvalues --    0.03115   0.03286   0.03930   0.04229   0.04458

 Mulliken charges:
               1
     1  C   -0.646827
     2  C   -0.196936
     3  C   -0.307379
     4  C   -0.202671
     5  C   -0.231585
     6  C   -0.305609
     7  C   -0.352727
     8  C   -0.188252
     9  C   -0.423756
    10  C    0.022814
    11  C   -1.056040
    12  S    0.895573
    13  C   -0.721668
    14  O   -0.453612
    15  H    0.174318
    16  H    0.147892
    17  H    0.147807
    18  H    0.146962
    19  H    0.147046
    20  H    0.141513
    21  H    0.141413
    22  H    0.142730
    23  H    0.142849
    24  H    0.143867
    25  H    0.144213
    26  H    0.143979
    27  H    0.144965
    28  H    0.145667
    29  H    0.147670
    30  H    0.142076
    31  H    0.145037
    32  H    0.160039
    33  H    0.142969
    34  H    0.143405
    35  H    0.143631
    36  H    0.228602
    37  H    0.269571
    38  H    0.225303
    39  H    0.144238
    40  H    0.220910
 Sum of Mulliken charges =  -0.00000

 Dipole moment (field-independent basis, Debye):
    X=             -4.4784    Y=              2.5933    Z=              0.1042  Tot=              5.1761
 Quadrupole moment (field-independent basis, Debye-Ang):
   XX=           -147.3397   YY=           -100.1031   ZZ=            -98.9795
   XY=             18.7436   XZ=              0.2220   YZ=              2.0433

  Exact polarizability: 223.558   0.675 153.602   0.492  -0.939 137.488
 Approx polarizability: 199.037  -3.749 197.858   0.568  -0.484 184.079

                      1                      2                      3
                      A                      A                      A
 Frequencies --     12.2834                21.7457                27.9329
 Red. masses --      2.4893                 2.8741                 4.5198
 Frc consts  --      0.0002                 0.0008                 0.0021
 IR Inten    --      0.0893                 2.7050                 1.1780

                      4                      5                      6
                      A                      A                      A
 Frequencies --     49.1700                60.4950                76.8642
 Red. masses --      3.2640                 1.7756                 3.5916
 Frc consts  --      0.0046                 0.0038                 0.0125
 IR Inten    --      0.9702                 1.3238                 2.2314

                      7                      8                      9
                      A                      A                      A
 Frequencies --     90.5302               101.3414               131.2335
 Red. masses --      2.8928                 1.7579                 2.3427
 Frc consts  --      0.0140                 0.0106                 0.0238
 IR Inten    --      1.0743                 0.5233                 0.3205

                     10                     11                     12
                      A                      A                      A
 Frequencies --    134.4640               148.4085               156.0973
 Red. masses --      2.2378                 2.7051                 4.9179
 Frc consts  --      0.0238                 0.0351                 0.0706
 IR Inten    --      0.4722                 1.4813                 1.4058

                     13                     14                     15
                      A                      A                      A
 Frequencies --    164.1542               168.8012               222.5656
 Red. masses --      2.1001                 2.0182                 1.5564
 Frc consts  --      0.0333                 0.0339                 0.0454
 IR Inten    --      0.0298                 0.2671                 1.9661

                     16                     17                     18
                      A                      A                      A
 Frequencies --    229.3072               248.2688               284.3411
 Red. masses --      2.0515                 1.1225                 3.0941
 Frc consts  --      0.0636                 0.0408                 0.1474
 IR Inten    --      3.0857                 0.0033                 0.6605

                     19                     20                     21
                      A                      A                      A
 Frequencies --    310.7927               325.0231               359.6238
 Red. masses --      4.1601                 3.5665                 3.0707
 Frc consts  --      0.2368                 0.2220                 0.2340
 IR Inten    --      3.5753                 4.1011                 6.3080

                     22                     23                     24
                      A                      A                      A
 Frequencies --    414.1574               431.3551               497.8537
 Red. masses --      3.1640                 3.6726                 3.0033
 Frc consts  --      0.3198                 0.4026                 0.4386
 IR Inten    --      4.8787                 0.3772                 1.5080

                     25                     26                     27
                      A                      A                      A
 Frequencies --    513.4427               682.8373               726.3757
 Red. masses --      3.0697                 4.2301                 1.0604
 Frc consts  --      0.4768                 1.1621                 0.3297
 IR Inten    --      0.3250                 7.3529                 4.0311

                     28                     29                     30
                      A                      A                      A
 Frequencies --    727.6217               731.1349               743.4608
 Red. masses --      1.0652                 1.0873                 1.1309
 Frc consts  --      0.3323                 0.3424                 0.3683
 IR Inten    --      1.7231                 4.9956                 0.1588

                     31                     32                     33
                      A                      A                      A
 Frequencies --    771.3404               779.3271               816.5725
 Red. masses --      1.3086                 3.3297                 1.2182
 Frc consts  --      0.4587                 1.1915                 0.4786
 IR Inten    --      2.4979                14.1150                 0.1416

                     34                     35                     36
                      A                      A                      A
 Frequencies --    871.4340               910.0556               925.1942
 Red. masses --      1.2463                 1.8065                 1.2390
 Frc consts  --      0.5576                 0.8815                 0.6249
 IR Inten    --      0.6229                 2.3879                 0.7554

                     37                     38                     39
                      A                      A                      A
 Frequencies --    956.1977               961.8765              1000.8941
 Red. masses --      1.4629                 1.2496                 1.2859
 Frc consts  --      0.7881                 0.6812                 0.7590
 IR Inten    --      6.2671                 6.4863                 4.7797

                     40                     41                     42
                      A                      A                      A
 Frequencies --   1011.2601              1023.1052              1043.9952
 Red. masses --      4.0211                 3.9675                 2.0983
 Frc consts  --      2.4228                 2.4468                 1.3475
 IR Inten    --      0.3743                 1.0315                 7.0734

                     43                     44                     45
                      A                      A                      A
 Frequencies --   1047.8086              1055.4956              1064.0184
 Red. masses --      1.5090                 3.0347                 4.8148
 Frc consts  --      0.9761                 1.9920                 3.2116
 IR Inten    --      4.4941                67.0812                86.0773

                     46                     47                     48
                      A                      A                      A
 Frequencies --   1079.4517              1088.8554              1092.4344
 Red. masses --      2.7908                 2.0457                 2.0609
 Frc consts  --      1.9159                 1.4290                 1.4491
 IR Inten    --     18.6560                 2.2981                 1.1098

                     49                     50                     51
                      A                      A                      A
 Frequencies --   1093.0630              1103.7179              1111.1286
 Red. masses --      2.0667                 2.3221                 1.3585
 Frc consts  --      1.4548                 1.6666                 0.9882
 IR Inten    --      0.2480                 1.1651                 3.1757

                     52                     53                     54
                      A                      A                      A
 Frequencies --   1154.6013              1206.2907              1216.5373
 Red. masses --      2.9679                 1.8678                 1.2773
 Frc consts  --      2.3311                 1.6013                 1.1138
 IR Inten    --      5.9526                 0.0385                 3.0907

                     55                     56                     57
                      A                      A                      A
 Frequencies --   1228.9636              1246.3795              1259.3156
 Red. masses --      1.5564                 1.3172                 1.3790
 Frc consts  --      1.3850                 1.2056                 1.2885
 IR Inten    --      0.2907                 1.9233                 0.3970

                     58                     59                     60
                      A                      A                      A
 Frequencies --   1276.4008              1290.6030              1309.2835
 Red. masses --      1.3082                 1.2759                 1.3193
 Frc consts  --      1.2557                 1.2521                 1.3324
 IR Inten    --      0.5669                 0.1634                 0.3274

                     61                     62                     63
                      A                      A                      A
 Frequencies --   1317.2263              1323.0453              1332.9068
 Red. masses --      1.1975                 1.0192                 1.0623
 Frc consts  --      1.2242                 1.0511                 1.1119
 IR Inten    --      0.5777                 0.0983                 0.8744

                     64                     65                     66
                      A                      A                      A
 Frequencies --   1334.4611              1340.6638              1343.2566
 Red. masses --      1.1385                 1.2091                 1.1252
 Frc consts  --      1.1945                 1.2805                 1.1962
 IR Inten    --      0.7889                 3.0194                 0.3479

                     67                     68                     69
                      A                      A                      A
 Frequencies --   1344.4699              1348.2187              1373.2114
 Red. masses --      1.2086                 1.1731                 1.4419
 Frc consts  --      1.2872                 1.2564                 1.6020
 IR Inten    --      1.3397                 2.8946                 0.3395

                     70                     71                     72
                      A                      A                      A
 Frequencies --   1395.5090              1409.2324              1412.9959
 Red. masses --      1.5216                 1.6526                 1.5513
 Frc consts  --      1.7459                 1.9337                 1.8248
 IR Inten    --      1.0034                 0.1236                 3.1958

                     73                     74                     75
                      A                      A                      A
 Frequencies --   1415.3630              1416.5834              1452.5284
 Red. masses --      1.7987                 1.4838                 1.0493
 Frc consts  --      2.1230                 1.7543                 1.3044
 IR Inten    --      0.3424                 1.3884                11.1711

                     76                     77                     78
                      A                      A                      A
 Frequencies --   1464.9468              1477.3761              1484.5708
 Red. masses --      1.0731                 1.0750                 1.0785
 Frc consts  --      1.3568                 1.3825                 1.4004
 IR Inten    --      2.4098                16.6906                 0.1631

                     79                     80                     81
                      A                      A                      A
 Frequencies --   1484.8309              1488.2157              1488.9788
 Red. masses --      1.0790                 1.0770                 1.0757
 Frc consts  --      1.4016                 1.4054                 1.4051
 IR Inten    --      0.1959                 0.1380                 0.2693

                     82                     83                     84
                      A                      A                      A
 Frequencies --   1491.6919              1496.1743              1502.1884
 Red. masses --      1.0762                 1.0836                 1.0896
 Frc consts  --      1.4110                 1.4292                 1.4486
 IR Inten    --      1.3186                 0.0940                 0.9230

                     85                     86                     87
                      A                      A                      A
 Frequencies --   1505.0952              1508.0350              1512.5871
 Red. masses --      1.0393                 1.0939                 1.0943
 Frc consts  --      1.3872                 1.4657                 1.4751
 IR Inten    --      9.0470                 0.6964                 1.9833

                     88                     89                     90
                      A                      A                      A
 Frequencies --   1514.9239              3029.6100              3030.5092
 Red. masses --      1.0944                 1.0586                 1.0586
 Frc consts  --      1.4799                 5.7246                 5.7284
 IR Inten    --     22.2932                 0.5042                 0.1186

                     91                     92                     93
                      A                      A                      A
 Frequencies --   3031.9630              3033.8274              3038.2110
 Red. masses --      1.0591                 1.0592                 1.0595
 Frc consts  --      5.7362                 5.7440                 5.7624
 IR Inten    --      0.0474                 2.1100                 0.7000

                     94                     95                     96
                      A                      A                      A
 Frequencies --   3041.8554              3045.4418              3049.7142
 Red. masses --      1.0599                 1.0600                 1.0595
 Frc consts  --      5.7780                 5.7923                 5.8062
 IR Inten    --      4.5034                41.2691                57.9537

                     97                     98                     99
                      A                      A                      A
 Frequencies --   3051.8505              3054.8104              3056.6679
 Red. masses --      1.0606                 1.0999                 1.0362
 Frc consts  --      5.8199                 6.0474                 5.7043
 IR Inten    --     85.9271                 0.0739                42.0299

                    100                    101                    102
                      A                      A                      A
 Frequencies --   3057.3649              3061.9496              3068.9248
 Red. masses --      1.1006                 1.1018                 1.1017
 Frc consts  --      6.0613                 6.0862                 6.1133
 IR Inten    --      0.1929                 0.0127                 0.1065

                    103                    104                    105
                      A                      A                      A
 Frequencies --   3071.6291              3075.1363              3077.0709
 Red. masses --      1.0358                 1.0573                 1.1007
 Frc consts  --      5.7581                 5.8907                 6.1402
 IR Inten    --      2.3664                 8.4983                 1.0625

                    106                    107                    108
                      A                      A                      A
 Frequencies --   3084.3227              3091.2631              3097.0662
 Red. masses --      1.1044                 1.1054                 1.1054
 Frc consts  --      6.1901                 6.2235                 6.2471
 IR Inten    --      0.7188                 1.1029                76.9234

                    109                    110                    111
                      A                      A                      A
 Frequencies --   3103.3231              3126.0751              3133.7390
 Red. masses --      1.1053                 1.1029                 1.1018
 Frc consts  --      6.2716                 6.3502                 6.3751
 IR Inten    --     95.7718                47.8602                31.2572

                    112                    113                    114
                      A                      A                      A
 Frequencies --   3135.0626              3176.9701              3185.1523
 Red. masses --      1.1070                 1.1065                 1.1055
 Frc consts  --      6.4104                 6.5801                 6.6078
 IR Inten    --      8.8170                 1.6434                 1.3529

 - Thermochemistry -
 -------------------
 Temperature     0.001 Kelvin.  Pressure   1.00000 Atm.
 Atom     1 has atomic number  6 and mass  12.00000

 Molecular mass:   218.17044 amu.
 Principal axes and moments of inertia in atomic units:
                           1         2         3
     Eigenvalues --   478.54304********************
           X            0.99999   0.00390   0.00244
           Y           -0.00391   0.99999   0.00321
           Z           -0.00242  -0.00322   0.99999
 This molecule is an asymmetric top.
 Rotational symmetry number  1.
 Warning -- assumption of classical behavior for rotation
           may cause significant error
 Rotational temperatures (Kelvin)      0.18100     0.00431     0.00426
 Rotational constants (GHZ):           3.77132     0.08976     0.08872
 Zero-point vibrational energy     961654.5 (Joules/Mol)
                                  229.84095 (Kcal/Mol)
 Vibrational temperatures:     17.67    31.29    40.19    70.74    87.04
          (Kelvin)            110.59   130.25   145.81   188.82   193.46
                              213.53   224.59   236.18   242.87   320.22
                              329.92   357.20   409.10   447.16   467.64
                              517.42   595.88   620.62   716.30   738.73
                              982.45  1045.09  1046.89  1051.94  1069.67
                             1109.79  1121.28  1174.87  1253.80  1309.37
                             1331.15  1375.76  1383.93  1440.06  1454.98
                             1472.02  1502.08  1507.56  1518.62  1530.89
                             1553.09  1566.62  1571.77  1572.67  1588.00
                             1598.67  1661.21  1735.58  1750.33  1768.20
                             1793.26  1811.87  1836.46  1856.89  1883.77
                             1895.19  1903.57  1917.76  1919.99  1928.92
                             1932.65  1934.39  1939.79  1975.74  2007.83
                             2027.57  2032.99  2036.39  2038.15  2089.86
                             2107.73  2125.61  2135.97  2136.34  2141.21
                             2142.31  2146.21  2152.66  2161.31  2165.50
                             2169.73  2176.28  2179.64  4358.93  4360.23
                             4362.32  4365.00  4371.31  4376.55  4381.71
                             4387.86  4390.93  4395.19  4397.86  4398.87
                             4405.46  4415.50  4419.39  4424.44  4427.22
                             4437.65  4447.64  4455.99  4464.99  4497.72
                             4508.75  4510.66  4570.95  4582.72

 Zero-point correction=                           0.366275 (Hartree/Particle)
 Thermal correction to Energy=                    0.366275
 Thermal correction to Enthalpy=                  0.366275
 Thermal correction to Gibbs Free Energy=         0.366275
 Sum of electronic and zero-point Energies=           -945.819755
 Sum of electronic and thermal Energies=              -945.819755
 Sum of electronic and thermal Enthalpies=            -945.819755
 Sum of electronic and thermal Free Energies=         -945.819755

                     E (Thermal)             CV                S
                      KCal/Mol        Cal/Mol-Kelvin    Cal/Mol-Kelvin
 Total                  229.841              5.962            -24.518
 Electronic               0.000              0.000              0.000
 Translational            0.000              2.981            -20.580
 Rotational               0.000              2.981             -3.938
 Vibrational            229.841              0.000              0.000

 Optimization completed.
    -- Stationary point found.
 Normal termination of Gaussian 16 at Mon Oct 14 09:39:44 2019.
