 Gaussian 16, Revision A.03,
 Gaussian 16:  ES64L-G16RevA.03 25-Dec-2016

 -------------------------------------------------------------------
 #p opt freq m062x/6-311++g(d,p) geom=connectivity temperature=0.001
 -------------------------------------------------------------------

 ----------------------------
 dodecyl_methyl_sulfoxide.sdf
 ----------------------------
 Symbolic Z-matrix:
 Charge =  1 Multiplicity = 1

 SCF Done:  E(RM062X) =  -946.483261369     A.U. after   16 cycles
 SCF Done:  E(RM062X) =  -946.517903653     A.U. after   12 cycles
 SCF Done:  E(RM062X) =  -946.545522115     A.U. after   12 cycles
 SCF Done:  E(RM062X) =  -946.548427229     A.U. after   11 cycles
 SCF Done:  E(RM062X) =  -946.549068500     A.U. after   10 cycles
 SCF Done:  E(RM062X) =  -946.549455409     A.U. after   11 cycles
 SCF Done:  E(RM062X) =  -946.549649877     A.U. after   11 cycles
 SCF Done:  E(RM062X) =  -946.549789888     A.U. after   11 cycles
 SCF Done:  E(RM062X) =  -946.549864066     A.U. after   11 cycles
 SCF Done:  E(RM062X) =  -946.549877877     A.U. after   10 cycles
 SCF Done:  E(RM062X) =  -946.549882013     A.U. after   10 cycles
 SCF Done:  E(RM062X) =  -946.549882306     A.U. after    8 cycles
 SCF Done:  E(RM062X) =  -946.549882378     A.U. after    7 cycles
 SCF Done:  E(RM062X) =  -946.549882420     A.U. after    7 cycles
 Optimization completed.
    -- Stationary point found.
 Normal termination of Gaussian 16 at Mon Oct 14 09:26:21 2019.

 ----------------------------------------------------------------------
 #P Geom=AllCheck Guess=TCheck SCRF=Check GenChk RM062X/6-311++G(d,p) F
 req
 ----------------------------------------------------------------------

 Structure from the checkpoint file:  "11_p.chk"
 ----------------------------
 dodecyl_methyl_sulfoxide.sdf
 ----------------------------
 Charge =  1 Multiplicity = 1

                         Standard orientation:
 ---------------------------------------------------------------------
 Center     Atomic      Atomic             Coordinates (Angstroms)
 Number     Number       Type             X           Y           Z
 ---------------------------------------------------------------------
      1          6           0       -8.564134   -0.226416    0.133050
      2          6           0       -7.272157    0.544685   -0.124356
      3          6           0       -6.025863   -0.302365    0.123505
      4          6           0       -4.725246    0.454666   -0.133426
      5          6           0       -3.480645   -0.393624    0.116867
      6          6           0       -2.180619    0.361786   -0.149157
      7          6           0       -0.937476   -0.487354    0.106473
      8          6           0        0.360741    0.267549   -0.171974
      9          6           0        1.599788   -0.583767    0.098377
     10          6           0        2.894512    0.177927   -0.207854
     11          6           0        4.104445   -0.692005    0.128763
     12         16           0        5.636170    0.067700   -0.459932
     13          6           0        5.745556    1.546913    0.543462
     14          8           0        6.733151   -0.858243    0.304908
     15          1           0       -9.443774    0.393331   -0.048916
     16          1           0       -8.630926   -1.102228   -0.517401
     17          1           0       -8.609231   -0.576624    1.167423
     18          1           0       -7.237400    1.431854    0.517046
     19          1           0       -7.259237    0.909609   -1.156996
     20          1           0       -6.060748   -1.192343   -0.516485
     21          1           0       -6.036500   -0.666919    1.157850
     22          1           0       -4.692068    1.345441    0.505312
     23          1           0       -4.715450    0.816943   -1.168437
     24          1           0       -3.517206   -1.287023   -0.517803
     25          1           0       -3.487719   -0.750927    1.153496
     26          1           0       -2.145461    1.257148    0.482766
     27          1           0       -2.172463    0.714830   -1.187195
     28          1           0       -0.976312   -1.386086   -0.519953
     29          1           0       -0.941487   -0.833108    1.146756
     30          1           0        0.396193    1.170497    0.448444
     31          1           0        0.369503    0.602960   -1.215476
     32          1           0        1.561797   -1.492316   -0.511755
     33          1           0        1.604156   -0.903192    1.146221
     34          1           0        2.915855    1.098769    0.381757
     35          1           0        2.906508    0.457231   -1.266968
     36          1           0        4.068777   -1.654688   -0.386480
     37          1           0        4.239091   -0.855998    1.200806
     38          1           0        6.744450    1.955882    0.397609
     39          1           0        4.997341    2.248846    0.174213
     40          1           0        5.572974    1.280471    1.586020
     41          1           0        7.391992   -1.207581   -0.314602
 ---------------------------------------------------------------------

 SCF Done:  E(RM062X) =  -946.549882420     A.U. after    1 cycles

 The electronic state is 1-A.
 Alpha  occ. eigenvalues --  -90.21679 -19.87331 -10.76172 -10.76083 -10.70475
 Alpha  occ. eigenvalues --  -10.66572 -10.63857 -10.61890 -10.60475 -10.59371
 Alpha  occ. eigenvalues --  -10.58534 -10.57852 -10.57520 -10.56405  -8.57581
 Alpha  occ. eigenvalues --   -6.49742  -6.49414  -6.49128  -1.40083  -1.13781
 Alpha  occ. eigenvalues --   -1.05452  -1.00463  -0.97603  -0.95412  -0.92820
 Alpha  occ. eigenvalues --   -0.89614  -0.86092  -0.82907  -0.81448  -0.78787
 Alpha  occ. eigenvalues --   -0.75379  -0.74442  -0.73192  -0.72511  -0.71145
 Alpha  occ. eigenvalues --   -0.70852  -0.69054  -0.66644  -0.65506  -0.63746
 Alpha  occ. eigenvalues --   -0.62270  -0.61706  -0.60020  -0.58451  -0.57424
 Alpha  occ. eigenvalues --   -0.56794  -0.56436  -0.54510  -0.54206  -0.53635
 Alpha  occ. eigenvalues --   -0.51681  -0.51345  -0.48989  -0.48565  -0.48068
 Alpha  occ. eigenvalues --   -0.46601  -0.45888  -0.44585  -0.43732  -0.43073
 Alpha  occ. eigenvalues --   -0.41735
 Alpha virt. eigenvalues --   -0.18504  -0.13611  -0.13289  -0.11035  -0.10351
 Alpha virt. eigenvalues --   -0.09869  -0.09203  -0.08062  -0.07554  -0.07005
 Alpha virt. eigenvalues --   -0.06919  -0.05906  -0.05375  -0.04962  -0.04555

 Mulliken charges:
               1
     1  C   -0.641589
     2  C   -0.203453
     3  C   -0.323283
     4  C   -0.212000
     5  C   -0.224206
     6  C   -0.292584
     7  C   -0.353926
     8  C   -0.218588
     9  C   -0.423886
    10  C   -0.210954
    11  C   -0.857971
    12  S    0.929437
    13  C   -0.739871
    14  O   -0.225176
    15  H    0.180568
    16  H    0.149197
    17  H    0.149192
    18  H    0.148715
    19  H    0.148471
    20  H    0.143563
    21  H    0.143512
    22  H    0.145740
    23  H    0.145618
    24  H    0.147929
    25  H    0.148596
    26  H    0.149121
    27  H    0.149743
    28  H    0.154606
    29  H    0.153358
    30  H    0.152767
    31  H    0.154243
    32  H    0.174915
    33  H    0.164430
    34  H    0.164514
    35  H    0.190658
    36  H    0.283843
    37  H    0.338755
    38  H    0.280612
    39  H    0.224670
    40  H    0.259732
    41  H    0.350983
 Sum of Mulliken charges =   1.00000

 Dipole moment (field-independent basis, Debye):
    X=             22.7517    Y=              0.7716    Z=             -0.7602  Tot=             22.7775
 Quadrupole moment (field-independent basis, Debye-Ang):
   XX=             48.6913   YY=            -90.1114   ZZ=            -94.7847
   XY=              3.5594   XZ=             -6.1796   YZ=              3.6591

  Exact polarizability: 222.389   0.987 146.993   0.063  -0.321 131.060
 Approx polarizability: 195.529  -1.037 189.262   0.029   0.117 177.851
