 Gaussian 16, Revision A.03,
 Gaussian 16:  ES64L-G16RevA.03 25-Dec-2016

 -------------------------------------------------------------------
 #p opt freq m062x/6-311++g(d,p) geom=connectivity temperature=0.001
 -------------------------------------------------------------------

 --------------------------
 diisobutyl_sulfoxide_p.sdf
 --------------------------
 Symbolic Z-matrix:
 Charge =  1 Multiplicity = 1

 SCF Done:  E(RM062X) =  -789.298013817     A.U. after   14 cycles
 SCF Done:  E(RM062X) =  -789.327241012     A.U. after   13 cycles
 SCF Done:  E(RM062X) =  -789.323546790     A.U. after   14 cycles
 SCF Done:  E(RM062X) =  -789.343996122     A.U. after   12 cycles
 SCF Done:  E(RM062X) =  -789.346499572     A.U. after   12 cycles
 SCF Done:  E(RM062X) =  -789.346663475     A.U. after   12 cycles
 SCF Done:  E(RM062X) =  -789.347355677     A.U. after   11 cycles
 SCF Done:  E(RM062X) =  -789.347397698     A.U. after   10 cycles
 SCF Done:  E(RM062X) =  -789.347409151     A.U. after   10 cycles
 SCF Done:  E(RM062X) =  -789.347415094     A.U. after   10 cycles
 SCF Done:  E(RM062X) =  -789.347419188     A.U. after   10 cycles
 SCF Done:  E(RM062X) =  -789.347423810     A.U. after   10 cycles
 SCF Done:  E(RM062X) =  -789.347427705     A.U. after   10 cycles
 SCF Done:  E(RM062X) =  -789.347429288     A.U. after    9 cycles
 SCF Done:  E(RM062X) =  -789.347429521     A.U. after    8 cycles
 Optimization completed.
    -- Stationary point found.
 Normal termination of Gaussian 16 at Sun Sep 20 15:59:54 2020.

 ----------------------------------------------------------------------
 #P Geom=AllCheck Guess=TCheck SCRF=Check GenChk RM062X/6-311++G(d,p) F
 req
 ----------------------------------------------------------------------

 Structure from the checkpoint file:  "11_p.chk"
 --------------------------
 diisobutyl_sulfoxide_p.sdf
 --------------------------
 Charge =  1 Multiplicity = 1

                         Standard orientation:
 ---------------------------------------------------------------------
 Center     Atomic      Atomic             Coordinates (Angstroms)
 Number     Number       Type             X           Y           Z
 ---------------------------------------------------------------------
      1         16           0        0.077105    1.291733    0.483043
      2          6           0       -1.143958    0.045889    0.980082
      3          1           0       -0.616351   -0.492908    1.775707
      4          1           0       -1.930828    0.641993    1.453798
      5          6           0        1.133556    0.421619   -0.700294
      6          1           0        0.479774    0.077170   -1.503857
      7          1           0        1.799226    1.200517   -1.082547
      8          6           0        1.925701   -0.706692   -0.028016
      9          6           0        2.778205   -1.376782   -1.109013
     10          1           0        3.327367   -2.215321   -0.679334
     11          1           0        2.167054   -1.757052   -1.929884
     12          1           0        3.507107   -0.671931   -1.517351
     13          6           0        2.792567   -0.192002    1.122509
     14          1           0        3.474237    0.588827    0.773644
     15          1           0        2.206622    0.215882    1.952038
     16          1           0        3.396891   -1.005105    1.525792
     17          6           0       -1.705330   -0.904151   -0.080332
     18          6           0       -2.591559   -1.912525    0.661768
     19          1           0       -2.988848   -2.641215   -0.045742
     20          1           0       -2.039128   -2.455431    1.431447
     21          1           0       -3.439657   -1.409261    1.133500
     22          6           0       -2.497801   -0.187812   -1.174205
     23          1           0       -2.960799   -0.926891   -1.829345
     24          1           0       -3.296583    0.417080   -0.736317
     25          1           0       -1.883408    0.469528   -1.790378
     26          1           0       -0.876233   -1.458859   -0.531079
     27          1           0        1.218610   -1.449625    0.357101
     28          8           0       -0.773292    2.239608   -0.534861
     29          1           0       -0.740684    3.162736   -0.241999
 ---------------------------------------------------------------------

 SCF Done:  E(RM062X) =  -789.347429521     A.U. after    1 cycles

 The electronic state is 1-A.
 Alpha  occ. eigenvalues --  -90.20051 -19.86228 -10.75264 -10.75053 -10.70903
 Alpha  occ. eigenvalues --  -10.70331 -10.66869 -10.66151 -10.65879 -10.65760
 Alpha  occ. eigenvalues --   -8.55970  -6.48137  -6.47798  -6.47509  -1.38821
 Alpha  occ. eigenvalues --   -1.13138  -1.07153  -1.03228  -0.96214  -0.92134
 Alpha  occ. eigenvalues --   -0.91374  -0.89848  -0.81576  -0.80560  -0.79319
 Alpha  occ. eigenvalues --   -0.74069  -0.71729  -0.69846  -0.69318  -0.65900
 Alpha  occ. eigenvalues --   -0.65459  -0.63725  -0.62721  -0.60996  -0.60264
 Alpha  occ. eigenvalues --   -0.59005  -0.58589  -0.57826  -0.57157  -0.55016
 Alpha  occ. eigenvalues --   -0.54786  -0.54508  -0.53784  -0.53104  -0.52015
 Alpha virt. eigenvalues --   -0.17275  -0.12584  -0.12525  -0.10931  -0.09868
 Alpha virt. eigenvalues --   -0.09199  -0.08299  -0.08154  -0.07478  -0.07329
 Alpha virt. eigenvalues --   -0.06831  -0.06296  -0.05470  -0.05025  -0.04387

 Mulliken charges:
               1
     1  S    0.785992
     2  C   -1.017633
     3  H    0.260750
     4  H    0.332471
     5  C   -0.564232
     6  H    0.249337
     7  H    0.333511
     8  C   -0.166760
     9  C   -0.559814
    10  H    0.202680
    11  H    0.170782
    12  H    0.179365
    13  C   -0.496141
    14  H    0.201362
    15  H    0.125049
    16  H    0.206575
    17  C    0.173696
    18  C   -0.557602
    19  H    0.209825
    20  H    0.168668
    21  H    0.168705
    22  C   -0.503706
    23  H    0.201012
    24  H    0.206885
    25  H    0.167874
    26  H    0.210462
    27  H    0.226545
    28  O   -0.271878
    29  H    0.356220
 Sum of Mulliken charges =   1.00000

 Dipole moment (field-independent basis, Debye):
    X=              0.3185    Y=              2.3708    Z=              1.1312  Tot=              2.6461
 Quadrupole moment (field-independent basis, Debye-Ang):
   XX=            -53.8268   YY=            -52.5305   ZZ=            -65.9534
   XY=             -0.8569   XZ=             -2.7651   YZ=              1.2811

  Exact polarizability: 126.715  -0.957 112.905  -1.612  -1.333 101.682
 Approx polarizability: 137.653  -2.143 139.038  -3.134  -2.888 129.725

                      1                      2                      3
                      A                      A                      A
 Frequencies --     42.4247                61.5815                87.2855
 Red. masses --      2.6032                 2.7910                 2.9738
 Frc consts  --      0.0028                 0.0062                 0.0133
 IR Inten    --      0.4171                 0.3804                 0.1923

                      4                      5                      6
                      A                      A                      A
 Frequencies --    132.3424               142.9899               193.6997
 Red. masses --      3.1537                 3.0274                 2.5337
 Frc consts  --      0.0325                 0.0365                 0.0560
 IR Inten    --      2.6119                 1.7442                 1.3455

                      7                      8                      9
                      A                      A                      A
 Frequencies --    213.2293               228.5632               234.2732
 Red. masses --      3.0073                 1.0674                 1.1340
 Frc consts  --      0.0806                 0.0329                 0.0367
 IR Inten    --     39.0715                 0.1158                 0.3162

                     10                     11                     12
                      A                      A                      A
 Frequencies --    255.1612               274.7810               284.3715
 Red. masses --      1.4128                 1.2121                 2.5575
 Frc consts  --      0.0542                 0.0539                 0.1219
 IR Inten    --      1.3918                 0.1999                 6.2417

                     13                     14                     15
                      A                      A                      A
 Frequencies --    303.4802               318.0548               348.5802
 Red. masses --      1.9353                 1.4595                 2.3640
 Frc consts  --      0.1050                 0.0870                 0.1692
 IR Inten    --      0.7626                48.2820                 7.0435

                     16                     17                     18
                      A                      A                      A
 Frequencies --    357.6490               417.0568               424.8490
 Red. masses --      2.3643                 2.1140                 2.0527
 Frc consts  --      0.1782                 0.2166                 0.2183
 IR Inten    --      0.6508                 1.6620                 1.0187

                     19                     20                     21
                      A                      A                      A
 Frequencies --    446.3306               463.5817               685.5256
 Red. masses --      1.8692                 3.0001                 4.1761
 Frc consts  --      0.2194                 0.3799                 1.1563
 IR Inten    --      2.3391                 0.6991                 3.9508

                     22                     23                     24
                      A                      A                      A
 Frequencies --    759.1384               823.1496               829.6383
 Red. masses --      4.8400                 2.1022                 2.5599
 Frc consts  --      1.6434                 0.8392                 1.0381
 IR Inten    --      1.3420                11.3666                 1.3947

                     25                     26                     27
                      A                      A                      A
 Frequencies --    837.8987               857.4783               891.8847
 Red. masses --      4.7474                 2.3018                 1.3993
 Frc consts  --      1.9638                 0.9972                 0.6558
 IR Inten    --     48.9124                29.6849                 1.2443

                     28                     29                     30
                      A                      A                      A
 Frequencies --    940.6061               942.9792               963.5084
 Red. masses --      1.1838                 1.2045                 1.9330
 Frc consts  --      0.6171                 0.6310                 1.0573
 IR Inten    --      1.4831                 2.8711                 2.7357

                     31                     32                     33
                      A                      A                      A
 Frequencies --    966.0670               982.9150               983.7633
 Red. masses --      1.9369                 1.4497                 1.4352
 Frc consts  --      1.0651                 0.8252                 0.8183
 IR Inten    --      2.8915                 1.3593                 0.4131

                     34                     35                     36
                      A                      A                      A
 Frequencies --   1098.1378              1124.4439              1144.5671
 Red. masses --      1.2868                 1.6208                 1.9528
 Frc consts  --      0.9143                 1.2074                 1.5073
 IR Inten    --      1.5949                 6.3832                 3.7776

                     37                     38                     39
                      A                      A                      A
 Frequencies --   1159.9490              1185.2469              1196.0329
 Red. masses --      1.9990                 1.3831                 1.5395
 Frc consts  --      1.5847                 1.1448                 1.2975
 IR Inten    --      7.9415                31.3865                32.8565

                     40                     41                     42
                      A                      A                      A
 Frequencies --   1201.5845              1237.1182              1254.8264
 Red. masses --      1.6999                 1.4359                 1.2815
 Frc consts  --      1.4461                 1.2948                 1.1889
 IR Inten    --     21.4727                 6.8115                 3.4505

                     43                     44                     45
                      A                      A                      A
 Frequencies --   1284.9460              1308.6415              1353.2352
 Red. masses --      1.2257                 1.2255                 1.4260
 Frc consts  --      1.1924                 1.2366                 1.5385
 IR Inten    --      8.1668                 1.0476                 1.3418

                     46                     47                     48
                      A                      A                      A
 Frequencies --   1356.3899              1374.1150              1388.2255
 Red. masses --      1.4027                 1.3706                 1.3037
 Frc consts  --      1.5205                 1.5248                 1.4803
 IR Inten    --      0.9787                 6.5261                 1.8574

                     49                     50                     51
                      A                      A                      A
 Frequencies --   1415.7633              1416.2128              1430.0186
 Red. masses --      1.2542                 1.2544                 1.1195
 Frc consts  --      1.4811                 1.4823                 1.3488
 IR Inten    --      2.9534                15.7518                13.0098

                     52                     53                     54
                      A                      A                      A
 Frequencies --   1437.2214              1445.3371              1466.1290
 Red. masses --      1.2144                 1.1851                 1.0914
 Frc consts  --      1.4779                 1.4587                 1.3822
 IR Inten    --     10.9451                10.8763                10.0875

                     55                     56                     57
                      A                      A                      A
 Frequencies --   1485.4510              1487.4810              1497.0580
 Red. masses --      1.0426                 1.0411                 1.0446
 Frc consts  --      1.3554                 1.3572                 1.3794
 IR Inten    --      1.0303                 2.1207                 9.7147

                     58                     59                     60
                      A                      A                      A
 Frequencies --   1498.5095              1509.3641              1510.9588
 Red. masses --      1.0456                 1.0635                 1.0651
 Frc consts  --      1.3833                 1.4276                 1.4327
 IR Inten    --      5.9822                 8.7951                 6.1585

                     61                     62                     63
                      A                      A                      A
 Frequencies --   1514.9362              1515.6642              3052.5883
 Red. masses --      1.0430                 1.0441                 1.0399
 Frc consts  --      1.4104                 1.4132                 5.7090
 IR Inten    --     17.2506                23.7209                10.3317

                     64                     65                     66
                      A                      A                      A
 Frequencies --   3058.8899              3063.0070              3063.5353
 Red. masses --      1.0760                 1.0428                 1.0501
 Frc consts  --      5.9321                 5.7645                 5.8064
 IR Inten    --     13.1453                 7.7219                 2.1833

                     67                     68                     69
                      A                      A                      A
 Frequencies --   3065.7119              3067.7857              3076.7459
 Red. masses --      1.0476                 1.0458                 1.0740
 Frc consts  --      5.8011                 5.7989                 5.9902
 IR Inten    --      6.7155                 1.5483                 8.5498

                     70                     71                     72
                      A                      A                      A
 Frequencies --   3087.1672              3118.0677              3119.3090
 Red. masses --      1.0593                 1.1045                 1.1010
 Frc consts  --      5.9483                 6.3266                 6.3115
 IR Inten    --      0.3500                 0.5996                18.1223

                     73                     74                     75
                      A                      A                      A
 Frequencies --   3137.5584              3139.3061              3143.2449
 Red. masses --      1.1030                 1.1033                 1.1005
 Frc consts  --      6.3974                 6.4064                 6.4059
 IR Inten    --      7.8769                10.8708                11.4666

                     76                     77                     78
                      A                      A                      A
 Frequencies --   3150.7142              3153.6538              3154.5862
 Red. masses --      1.1012                 1.1035                 1.1064
 Frc consts  --      6.4407                 6.4663                 6.4873
 IR Inten    --      2.4410                 3.8930                 1.6135

                     79                     80                     81
                      A                      A                      A
 Frequencies --   3155.3506              3157.9303              3807.9676
 Red. masses --      1.1022                 1.1031                 1.0681
 Frc consts  --      6.4655                 6.4811                 9.1252
 IR Inten    --      5.9581                 8.8114               292.5526

 - Thermochemistry -
 -------------------
 Temperature     0.001 Kelvin.  Pressure   1.00000 Atm.
 Atom     1 has atomic number 16 and mass  31.97207

 Molecular mass:   163.11566 amu.
 Principal axes and moments of inertia in atomic units:
                           1         2         3
     Eigenvalues --  1340.956372471.720302996.51277
           X            0.99998   0.00683  -0.00120
           Y           -0.00684   0.99996  -0.00645
           Z            0.00116   0.00646   0.99998
 This molecule is an asymmetric top.
 Rotational symmetry number  1.
 Warning -- assumption of classical behavior for rotation
           may cause significant error
 Rotational temperatures (Kelvin)      0.06459     0.03504     0.02890
 Rotational constants (GHZ):           1.34586     0.73016     0.60228
 Zero-point vibrational energy     692431.6 (Joules/Mol)
                                  165.49512 (Kcal/Mol)
 Vibrational temperatures:     61.04    88.60   125.58   190.41   205.73
          (Kelvin)            278.69   306.79   328.85   337.07   367.12
                              395.35   409.15   436.64   457.61   501.53
                              514.58   600.05   611.26   642.17   666.99
                              986.32  1092.23  1184.33  1193.66  1205.55
                             1233.72  1283.22  1353.32  1356.74  1386.27
                             1389.95  1414.20  1415.42  1579.98  1617.82
                             1646.78  1668.91  1705.31  1720.82  1728.81
                             1779.94  1805.42  1848.75  1882.84  1947.00
                             1951.54  1977.04  1997.35  2036.97  2037.61
                             2057.48  2067.84  2079.52  2109.43  2137.23
                             2140.15  2153.93  2156.02  2171.64  2173.93
                             2179.66  2180.70  4391.99  4401.06  4406.98
                             4407.74  4410.88  4413.86  4426.75  4441.74
                             4486.20  4487.99  4514.25  4516.76  4522.43
                             4533.18  4537.40  4538.75  4539.85  4543.56
                             5478.82

 Zero-point correction=                           0.263733 (Hartree/Particle)
 Thermal correction to Energy=                    0.263733
 Thermal correction to Enthalpy=                  0.263733
 Thermal correction to Gibbs Free Energy=         0.263733
 Sum of electronic and zero-point Energies=           -789.083696
 Sum of electronic and thermal Energies=              -789.083696
 Sum of electronic and thermal Enthalpies=            -789.083696
 Sum of electronic and thermal Free Energies=         -789.083696

                     E (Thermal)             CV                S
                      KCal/Mol        Cal/Mol-Kelvin    Cal/Mol-Kelvin
 Total                  165.495              5.962            -28.347
 Electronic               0.000              0.000              0.000
 Translational            0.000              2.981            -21.447
 Rotational               0.000              2.981             -6.899
 Vibrational            165.495              0.000              0.000

 Optimization completed.
    -- Stationary point found.
 Normal termination of Gaussian 16 at Sun Sep 20 16:05:05 2020.
