 Gaussian 16, Revision A.03,
 Gaussian 16:  ES64L-G16RevA.03 25-Dec-2016

 -------------------------------------------------------------------
 #P opt freq m062x/6-311++g(d,p) geom=connectivity temperature=0.001
 -------------------------------------------------------------------

 ---------------------
 nitropyridine n oxide
 ---------------------
 Symbolic Z-matrix:
 Charge =  0 Multiplicity = 1

 SCF Done:  E(RM062X) =  -452.691043523     A.U. after   15 cycles
 SCF Done:  E(RM062X) =  -452.716963422     A.U. after   14 cycles
 SCF Done:  E(RM062X) =  -452.722848200     A.U. after   14 cycles
 SCF Done:  E(RM062X) =  -452.723379524     A.U. after   12 cycles
 SCF Done:  E(RM062X) =  -452.723421870     A.U. after   11 cycles
 SCF Done:  E(RM062X) =  -452.723425371     A.U. after   10 cycles
 SCF Done:  E(RM062X) =  -452.723425979     A.U. after    9 cycles
 Optimization completed.
    -- Stationary point found.
 Normal termination of Gaussian 16 at Mon Oct 14 09:12:42 2019.

 ----------------------------------------------------------------------
 #P Geom=AllCheck Guess=TCheck SCRF=Check GenChk RM062X/6-311++G(d,p) F
 req
 ----------------------------------------------------------------------

 Structure from the checkpoint file:  "12.chk"
 ---------------------
 nitropyridine n oxide
 ---------------------
 Charge =  0 Multiplicity = 1

                         Standard orientation:
 ---------------------------------------------------------------------
 Center     Atomic      Atomic             Coordinates (Angstroms)
 Number     Number       Type             X           Y           Z
 ---------------------------------------------------------------------
      1          6           0        1.206503   -0.444056    0.000000
      2          6           0        1.141546   -1.834630    0.000000
      3          7           0        0.000541   -2.521222    0.000000
      4          6           0       -1.140746   -1.835076    0.000000
      5          6           0       -1.206222   -0.444518    0.000000
      6          6           0       -0.000000    0.229354    0.000000
      7          7           0       -0.000418    1.714668    0.000000
      8          8           0        1.075221    2.267671    0.000000
      9          8           0       -1.076276    2.267093    0.000000
     10          1           0        2.145316    0.091677    0.000000
     11          1           0        2.054473   -2.420172    0.000000
     12          1           0       -2.053430   -2.420983    0.000000
     13          1           0       -2.145269    0.090808    0.000000
 ---------------------------------------------------------------------

 SCF Done:  E(RM062X) =  -452.723425979     A.U. after    1 cycles

 The electronic state is 1-A'.
 Alpha  occ. eigenvalues --  -19.68419 -19.68414 -15.02367 -14.78339 -10.64086
 Alpha  occ. eigenvalues --  -10.61305 -10.61303 -10.59329 -10.59327  -1.40042
 Alpha  occ. eigenvalues --   -1.21380  -1.09525  -0.98130  -0.90163  -0.84528
 Alpha  occ. eigenvalues --   -0.76022  -0.71556  -0.67973  -0.65355  -0.63114
 Alpha  occ. eigenvalues --   -0.58983  -0.58835  -0.56620  -0.53739  -0.51076
 Alpha  occ. eigenvalues --   -0.46631  -0.41480  -0.40593  -0.40300  -0.39006
 Alpha  occ. eigenvalues --   -0.36053  -0.35508
 Alpha virt. eigenvalues --   -0.07904  -0.02087  -0.00737   0.00509   0.01033
 Alpha virt. eigenvalues --    0.02006   0.03417   0.03785   0.04780   0.06826
 Alpha virt. eigenvalues --    0.07992   0.08064   0.08144   0.09731   0.10789

 Mulliken charges:
               1
     1  C    0.892510
     2  C   -0.725178
     3  N    0.027354
     4  C   -0.725196
     5  C    0.892540
     6  C   -1.256269
     7  N   -0.109422
     8  O   -0.012892
     9  O   -0.012798
    10  H    0.296368
    11  H    0.218302
    12  H    0.218301
    13  H    0.296381
 Sum of Mulliken charges =  -0.00000

 Dipole moment (field-independent basis, Debye):
    X=              0.0002    Y=             -2.2105    Z=             -0.0000  Tot=              2.2105
 Quadrupole moment (field-independent basis, Debye-Ang):
   XX=            -45.1972   YY=            -65.4749   ZZ=            -51.7532
   XY=              0.0034   XZ=             -0.0000   YZ=              0.0000

  Exact polarizability:  90.460   0.000  93.784   0.000  -0.000  40.899
 Approx polarizability: 133.629   0.006 113.602   0.000   0.000  53.428

                      1                      2                      3
                     A"                     A"                     A'
 Frequencies --     46.0630               171.0312               258.2326
 Red. masses --      7.8164                 7.8025                 6.9522
 Frc consts  --      0.0098                 0.1345                 0.2731
 IR Inten    --      0.0000                 8.4111                 3.6935

                      4                      5                      6
                     A"                     A'                     A"
 Frequencies --    391.4605               396.3951               455.3911
 Red. masses --      2.6354                10.7129                 4.6509
 Frc consts  --      0.2379                 0.9918                 0.5683
 IR Inten    --      0.0000                 0.9603                 6.6380

                      7                      8                      9
                     A'                     A'                     A'
 Frequencies --    535.3512               675.0281               703.3586
 Red. masses --      8.3221                 6.8702                 7.9132
 Frc consts  --      1.4053                 1.8444                 2.3065
 IR Inten    --      1.9471                 0.8226                29.1539

                     10                     11                     12
                     A"                     A"                     A"
 Frequencies --    710.8813               734.6462               860.0401
 Red. masses --      4.4968                 4.1654                 1.4987
 Frc consts  --      1.3389                 1.3245                 0.6532
 IR Inten    --     33.5896                 3.5293                36.1896

                     13                     14                     15
                     A"                     A'                     A"
 Frequencies --    893.4018               898.0903              1000.5977
 Red. masses --      1.2428                10.4776                 1.3106
 Frc consts  --      0.5845                 4.9791                 0.7731
 IR Inten    --      0.0000                24.8801                 0.7945

                     16                     17                     18
                     A'                     A"                     A'
 Frequencies --   1022.2711              1022.4278              1087.8822
 Red. masses --      7.3033                 1.4469                 1.6065
 Frc consts  --      4.4968                 0.8912                 1.1202
 IR Inten    --      6.6734                 0.0000                14.4608

                     19                     20                     21
                     A'                     A'                     A'
 Frequencies --   1101.5363              1159.3273              1248.8960
 Red. masses --      1.4035                 4.8779                 1.3050
 Frc consts  --      1.0033                 3.8627                 1.1992
 IR Inten    --      0.0984                13.1402                 1.8993

                     22                     23                     24
                     A'                     A'                     A'
 Frequencies --   1277.7660              1350.9213              1452.5704
 Red. masses --      8.5511                 1.3903                 2.2130
 Frc consts  --      8.2258                 1.4949                 2.7511
 IR Inten    --     20.2240                 0.1735                17.9091

                     25                     26                     27
                     A'                     A'                     A'
 Frequencies --   1471.9282              1529.6076              1650.7987
 Red. masses --     14.4542                 2.2855                 5.9295
 Frc consts  --     18.4508                 3.1505                 9.5204
 IR Inten    --    196.7050                 1.7463                26.5421

                     28                     29                     30
                     A'                     A'                     A'
 Frequencies --   1668.7746              1727.5812              3204.1129
 Red. masses --     10.0479                12.1324                 1.0900
 Frc consts  --     16.4862                21.3341                 6.5934
 IR Inten    --    193.2024               193.8870                14.3575

                     31                     32                     33
                     A'                     A'                     A'
 Frequencies --   3206.8727              3258.4601              3258.7751
 Red. masses --      1.0934                 1.0954                 1.0944
 Frc consts  --      6.6253                 6.8527                 6.8473
 IR Inten    --      0.3076                 7.8179                 6.4302

 - Thermochemistry -
 -------------------
 Temperature     0.001 Kelvin.  Pressure   1.00000 Atm.
 Atom     1 has atomic number  6 and mass  12.00000

 Molecular mass:   124.02728 amu.
 Principal axes and moments of inertia in atomic units:
                           1         2         3
     Eigenvalues --   432.028761401.527221833.55599
           X           -0.00023   1.00000   0.00000
           Y            1.00000   0.00023   0.00000
           Z            0.00000   0.00000   1.00000
 This molecule is an asymmetric top.
 Rotational symmetry number  1.
 Rotational temperatures (Kelvin)      0.20048     0.06180     0.04724
 Rotational constants (GHZ):           4.17736     1.28770     0.98428
 Zero-point vibrational energy     241828.0 (Joules/Mol)
                                   57.79827 (Kcal/Mol)
 Vibrational temperatures:     66.27   246.08   371.54   563.22   570.32
          (Kelvin)            655.21   770.25   971.21  1011.98  1022.80
                             1056.99  1237.41  1285.41  1292.15  1439.64
                             1470.82  1471.05  1565.22  1584.87  1668.01
                             1796.88  1838.42  1943.67  2089.92  2117.78
                             2200.76  2375.13  2400.99  2485.60  4610.00
                             4613.97  4688.20  4688.65

 Zero-point correction=                           0.092107 (Hartree/Particle)
 Thermal correction to Energy=                    0.092107
 Thermal correction to Enthalpy=                  0.092107
 Thermal correction to Gibbs Free Energy=         0.092107
 Sum of electronic and zero-point Energies=           -452.631319
 Sum of electronic and thermal Energies=              -452.631319
 Sum of electronic and thermal Enthalpies=            -452.631319
 Sum of electronic and thermal Free Energies=         -452.631319

                     E (Thermal)             CV                S
                      KCal/Mol        Cal/Mol-Kelvin    Cal/Mol-Kelvin
 Total                   57.798              5.962            -31.340
 Electronic               0.000              0.000              0.000
 Translational            0.000              2.981            -22.264
 Rotational               0.000              2.981             -9.077
 Vibrational             57.798              0.000              0.000

 Optimization completed.
    -- Stationary point found.
 Normal termination of Gaussian 16 at Mon Oct 14 09:13:25 2019.
