 Gaussian 16, Revision A.03,
 Gaussian 16:  ES64L-G16RevA.03 25-Dec-2016

 -------------------------------------------------------------------
 #P opt freq m062x/6-311++g(d,p) geom=connectivity temperature=0.001
 -------------------------------------------------------------------

 --------------------------
 nitropyridine n oxide plus
 --------------------------
 Symbolic Z-matrix:
 Charge =  1 Multiplicity = 1

 SCF Done:  E(RM062X) =  -453.025084077     A.U. after   15 cycles
 SCF Done:  E(RM062X) =  -453.052934975     A.U. after   14 cycles
 SCF Done:  E(RM062X) =  -453.060585827     A.U. after   14 cycles
 SCF Done:  E(RM062X) =  -453.061114828     A.U. after   13 cycles
 SCF Done:  E(RM062X) =  -453.061159188     A.U. after   11 cycles
 SCF Done:  E(RM062X) =  -453.061163916     A.U. after   10 cycles
 SCF Done:  E(RM062X) =  -453.061164693     A.U. after   10 cycles
 Optimization completed.
    -- Stationary point found.
 Normal termination of Gaussian 16 at Mon Oct 14 09:12:54 2019.

 ----------------------------------------------------------------------
 #P Geom=AllCheck Guess=TCheck SCRF=Check GenChk RM062X/6-311++G(d,p) F
 req
 ----------------------------------------------------------------------

 Structure from the checkpoint file:  "12_p.chk"
 --------------------------
 nitropyridine n oxide plus
 --------------------------
 Charge =  1 Multiplicity = 1

                         Standard orientation:
 ---------------------------------------------------------------------
 Center     Atomic      Atomic             Coordinates (Angstroms)
 Number     Number       Type             X           Y           Z
 ---------------------------------------------------------------------
      1          6           0        1.217842   -0.391241    0.000000
      2          6           0        1.187582   -1.771070    0.000000
      3          7           0        0.000768   -2.405382    0.000000
      4          6           0       -1.186430   -1.771776    0.000000
      5          6           0       -1.217427   -0.391963    0.000000
      6          6           0       -0.000000    0.268362    0.000000
      7          7           0       -0.000626    1.767584    0.000000
      8          8           0        1.080553    2.294346    0.000000
      9          8           0       -1.082197    2.293396    0.000000
     10          1           0        2.151254    0.157153    0.000000
     11          1           0        2.075300   -2.389781    0.000000
     12          1           0       -2.073787   -2.390998    0.000000
     13          1           0       -2.151181    0.155845    0.000000
     14          1           0        0.001161   -3.423441    0.000000
 ---------------------------------------------------------------------

 SCF Done:  E(RM062X) =  -453.061164693     A.U. after    1 cycles

 The electronic state is 1-A'.
 Alpha  occ. eigenvalues --  -19.83204 -19.83200 -15.17506 -15.07669 -10.83822
 Alpha  occ. eigenvalues --  -10.83820 -10.83379 -10.78745 -10.78743  -1.55186
 Alpha  occ. eigenvalues --   -1.36854  -1.35744  -1.17820  -1.12220  -1.03803
 Alpha  occ. eigenvalues --   -0.97893  -0.91047  -0.89762  -0.82634  -0.81856
 Alpha  occ. eigenvalues --   -0.80483  -0.76994  -0.76426  -0.74678  -0.74436
 Alpha  occ. eigenvalues --   -0.70613  -0.66981  -0.59893  -0.56143  -0.55830
 Alpha  occ. eigenvalues --   -0.55435  -0.54327
 Alpha virt. eigenvalues --   -0.26858  -0.21497  -0.16633  -0.16236  -0.12023
 Alpha virt. eigenvalues --   -0.11893  -0.10515  -0.09701  -0.08528  -0.07742
 Alpha virt. eigenvalues --   -0.05866  -0.05590  -0.04889  -0.03686  -0.03581

 Mulliken charges:
               1
     1  C    0.772760
     2  C   -0.509392
     3  N   -0.015894
     4  C   -0.509478
     5  C    0.772724
     6  C   -1.206482
     7  N   -0.045648
     8  O    0.037324
     9  O    0.037391
    10  H    0.356957
    11  H    0.281308
    12  H    0.281311
    13  H    0.356982
    14  H    0.390137
 Sum of Mulliken charges =   1.00000

 Dipole moment (field-independent basis, Debye):
    X=              0.0035    Y=            -10.6248    Z=              0.0000  Tot=             10.6248
 Quadrupole moment (field-independent basis, Debye-Ang):
   XX=            -36.5572   YY=            -28.1557   ZZ=            -49.8214
   XY=             -0.0036   XZ=              0.0000   YZ=              0.0000

  Exact polarizability:  85.670   0.000  88.869  -0.000  -0.000  36.432
 Approx polarizability: 129.693   0.011 107.444  -0.000  -0.000  48.039

                      1                      2                      3
                     A"                     A"                     A'
 Frequencies --     41.9728               161.4002               256.6258
 Red. masses --      8.1096                 5.2154                 6.5397
 Frc consts  --      0.0084                 0.0800                 0.2538
 IR Inten    --      0.0000                 0.0041                 1.6375

                      4                      5                      6
                     A'                     A"                     A"
 Frequencies --    391.0155               405.7497               440.1528
 Red. masses --      9.5902                 2.8133                 4.1672
 Frc consts  --      0.8639                 0.2729                 0.4757
 IR Inten    --      7.8487                 0.0000                 0.5143

                      7                      8                      9
                     A'                     A'                     A"
 Frequencies --    531.8069               648.0515               670.7261
 Red. masses --      8.2258                 6.4532                 4.4289
 Frc consts  --      1.3707                 1.5968                 1.1739
 IR Inten    --      0.5202                 0.2659                36.3492

                     10                     11                     12
                     A'                     A"                     A"
 Frequencies --    710.6308               710.9166               802.4620
 Red. masses --      7.2465                 3.7744                 1.3613
 Frc consts  --      2.1561                 1.1239                 0.5165
 IR Inten    --     10.3414                22.7610               127.1488

                     13                     14                     15
                     A"                     A'                     A"
 Frequencies --    891.3841               891.5733               939.3648
 Red. masses --      1.2453                10.1766                 1.3516
 Frc consts  --      0.5830                 4.7662                 0.7027
 IR Inten    --      0.0000                46.7696                 0.5442

                     16                     17                     18
                     A"                     A"                     A'
 Frequencies --   1017.2719              1021.7119              1031.1052
 Red. masses --      1.2563                 1.3818                 6.1308
 Frc consts  --      0.7660                 0.8499                 3.8403
 IR Inten    --      4.9028                 0.0000                 2.9070

                     19                     20                     21
                     A'                     A'                     A'
 Frequencies --   1076.2338              1118.2456              1152.1832
 Red. masses --      1.7853                 1.3550                 4.2456
 Frc consts  --      1.2184                 0.9983                 3.3208
 IR Inten    --     11.6279                 4.5903                 8.9442

                     22                     23                     24
                     A'                     A'                     A'
 Frequencies --   1225.6532              1279.8553              1341.0633
 Red. masses --      1.2524                 2.1209                 1.3509
 Frc consts  --      1.1085                 2.0469                 1.4314
 IR Inten    --      1.0166                32.0636                 0.5563

                     25                     26                     27
                     A'                     A'                     A'
 Frequencies --   1367.0412              1451.3344              1531.9590
 Red. masses --      2.3094                14.9248                 2.2752
 Frc consts  --      2.5428                18.5223                 3.1460
 IR Inten    --     40.1809               137.2207                27.2726

                     28                     29                     30
                     A'                     A'                     A'
 Frequencies --   1579.8054              1688.2552              1700.3292
 Red. masses --      2.1125                 4.9342                 5.4643
 Frc consts  --      3.1063                 8.2859                 9.3080
 IR Inten    --     20.7320               132.8155                52.6282

                     31                     32                     33
                     A'                     A'                     A'
 Frequencies --   1760.4771              3242.3508              3242.8951
 Red. masses --     13.3920                 1.0944                 1.0931
 Frc consts  --     24.4545                 6.7789                 6.7728
 IR Inten    --    256.3715                41.4584                18.7015

                     34                     35                     36
                     A'                     A'                     A'
 Frequencies --   3252.2645              3254.0647              3558.2028
 Red. masses --      1.0997                 1.1014                 1.0813
 Frc consts  --      6.8533                 6.8713                 8.0662
 IR Inten    --     70.5934                 0.0381               232.8930

 - Thermochemistry -
 -------------------
 Temperature     0.001 Kelvin.  Pressure   1.00000 Atm.
 Atom     1 has atomic number  6 and mass  12.00000

 Molecular mass:   125.03510 amu.
 Principal axes and moments of inertia in atomic units:
                           1         2         3
     Eigenvalues --   445.702981413.578721859.28169
           X           -0.00034   1.00000   0.00000
           Y            1.00000   0.00034   0.00000
           Z           -0.00000   0.00000   1.00000
 This molecule is an asymmetric top.
 Rotational symmetry number  1.
 Warning -- assumption of classical behavior for rotation
           may cause significant error
 Rotational temperatures (Kelvin)      0.19433     0.06127     0.04658
 Rotational constants (GHZ):           4.04920     1.27672     0.97067
 Zero-point vibrational energy     277450.7 (Joules/Mol)
                                   66.31231 (Kcal/Mol)
 Vibrational temperatures:     60.39   232.22   369.23   562.58   583.78
          (Kelvin)            633.28   765.15   932.40   965.03  1022.44
                             1022.85  1154.56  1282.50  1282.78  1351.54
                             1463.63  1470.02  1483.53  1548.46  1608.91
                             1657.73  1763.44  1841.43  1929.49  1966.87
                             2088.15  2204.15  2272.99  2429.02  2446.39
                             2532.93  4665.02  4665.80  4679.28  4681.87
                             5119.46

 Zero-point correction=                           0.105675 (Hartree/Particle)
 Thermal correction to Energy=                    0.105675
 Thermal correction to Enthalpy=                  0.105675
 Thermal correction to Gibbs Free Energy=         0.105675
 Sum of electronic and zero-point Energies=           -452.955489
 Sum of electronic and thermal Energies=              -452.955489
 Sum of electronic and thermal Enthalpies=            -452.955489
 Sum of electronic and thermal Free Energies=         -452.955489

                     E (Thermal)             CV                S
                      KCal/Mol        Cal/Mol-Kelvin    Cal/Mol-Kelvin
 Total                   66.312              5.962            -31.263
 Electronic               0.000              0.000              0.000
 Translational            0.000              2.981            -22.240
 Rotational               0.000              2.981             -9.023
 Vibrational             66.312              0.000              0.000

 Optimization completed.
    -- Stationary point found.
 Normal termination of Gaussian 16 at Mon Oct 14 09:13:40 2019.
