 Gaussian 16, Revision A.03,
 Gaussian 16:  ES64L-G16RevA.03 25-Dec-2016

 -------------------------------------------------------------------
 #p opt freq m062x/6-311++g(d,p) geom=connectivity temperature=0.001
 -------------------------------------------------------------------

 ---------------------
 nitropyridine n oxide
 ---------------------
 Symbolic Z-matrix:
 Charge =  1 Multiplicity = 1

 SCF Done:  E(RM062X) =  -452.998770417     A.U. after   17 cycles
 SCF Done:  E(RM062X) =  -453.015608093     A.U. after   14 cycles
 SCF Done:  E(RM062X) =  -453.017958217     A.U. after   13 cycles
 SCF Done:  E(RM062X) =  -453.018350739     A.U. after   12 cycles
 SCF Done:  E(RM062X) =  -453.018399546     A.U. after   11 cycles
 SCF Done:  E(RM062X) =  -453.018401820     A.U. after   10 cycles
 Optimization completed.
    -- Stationary point found.
 Normal termination of Gaussian 16 at Thu Jan  2 15:27:47 2020.

 ----------------------------------------------------------------------
 #P Geom=AllCheck Guess=TCheck SCRF=Check GenChk RM062X/6-311++G(d,p) F
 req
 ----------------------------------------------------------------------

 Structure from the checkpoint file:  "12_p_b.chk"
 ---------------------
 nitropyridine n oxide
 ---------------------
 Charge =  1 Multiplicity = 1

                         Standard orientation:
 ---------------------------------------------------------------------
 Center     Atomic      Atomic             Coordinates (Angstroms)
 Number     Number       Type             X           Y           Z
 ---------------------------------------------------------------------
      1          6           0        1.308761   -0.297399    0.000000
      2          6           0        1.444012   -1.680816    0.000000
      3          7           0        0.405023   -2.515360    0.000000
      4          6           0       -0.831810   -2.022229    0.000000
      5          6           0       -1.111985   -0.659079    0.000000
      6          6           0        0.000000    0.179556    0.000000
      7          7           0       -0.173687    1.602581    0.000000
      8          8           0        0.698854    2.386523    0.000000
      9          8           0       -1.432385    1.999714    0.000000
     10          1           0        2.166201    0.363090    0.000000
     11          1           0        2.429494   -2.132179    0.000000
     12          1           0       -1.641607   -2.742802    0.000000
     13          1           0       -2.127712   -0.288758    0.000000
     14          1           0       -1.431352    2.980010    0.000000
 ---------------------------------------------------------------------

 SCF Done:  E(RM062X) =  -453.018401820     A.U. after    1 cycles

 The electronic state is 1-A'.
 Alpha  occ. eigenvalues --  -19.96706 -19.95955 -15.26944 -14.94101 -10.82893
 Alpha  occ. eigenvalues --  -10.76757 -10.76711 -10.76675 -10.76587  -1.65875
 Alpha  occ. eigenvalues --   -1.47597  -1.25692  -1.20658  -1.07470  -1.06398
 Alpha  occ. eigenvalues --   -0.97389  -0.92707  -0.89962  -0.89326  -0.86569
 Alpha  occ. eigenvalues --   -0.78744  -0.75977  -0.75659  -0.71552  -0.69894
 Alpha  occ. eigenvalues --   -0.68555  -0.66939  -0.65596  -0.62576  -0.55990
 Alpha  occ. eigenvalues --   -0.51343  -0.50870
 Alpha virt. eigenvalues --   -0.31512  -0.17476  -0.16634  -0.15763  -0.11896
 Alpha virt. eigenvalues --   -0.10499  -0.09673  -0.08297  -0.07984  -0.07165
 Alpha virt. eigenvalues --   -0.05346  -0.04498  -0.04125  -0.04070  -0.03143

 Mulliken charges:
               1
     1  C    1.030348
     2  C   -0.738942
     3  N    0.110789
     4  C   -0.752673
     5  C    0.922376
     6  C   -1.317357
     7  N   -0.170006
     8  O    0.195365
     9  O    0.183489
    10  H    0.326392
    11  H    0.268013
    12  H    0.267415
    13  H    0.328522
    14  H    0.346268
 Sum of Mulliken charges =   1.00000

 Dipole moment (field-independent basis, Debye):
    X=             -1.6022    Y=              4.4851    Z=              0.0000  Tot=              4.7627
 Quadrupole moment (field-independent basis, Debye-Ang):
   XX=            -34.8427   YY=            -30.2134   ZZ=            -50.1433
   XY=             -5.4972   XZ=              0.0000   YZ=              0.0000

  Exact polarizability:  85.698  -2.136 110.145   0.000   0.000  37.872
 Approx polarizability: 123.419   5.036 141.646  -0.000  -0.000  49.982

                      1                      2                      3
                     A"                     A"                     A'
 Frequencies --     63.8772               156.8384               254.1570
 Red. masses --      6.9923                 6.3213                 5.9421
 Frc consts  --      0.0168                 0.0916                 0.2261
 IR Inten    --      0.1547                 0.1620                 1.0705

                      4                      5                      6
                     A"                     A'                     A"
 Frequencies --    363.6377               396.7926               428.7798
 Red. masses --      2.5634                 9.4805                 3.9142
 Frc consts  --      0.1997                 0.8794                 0.4240
 IR Inten    --      0.6120                 5.0761                40.8683

                      7                      8                      9
                     A'                     A"                     A'
 Frequencies --    524.8169               554.4406               663.5393
 Red. masses --      7.3006                 1.1827                 6.8510
 Frc consts  --      1.1847                 0.2142                 1.7772
 IR Inten    --      5.2730               105.3417                 3.4432

                     10                     11                     12
                     A'                     A"                     A"
 Frequencies --    675.9634               700.0821               726.9226
 Red. masses --      6.2786                 4.0361                 4.0587
 Frc consts  --      1.6903                 1.1655                 1.2636
 IR Inten    --     42.9046                 2.6726                54.0791

                     13                     14                     15
                     A'                     A"                     A"
 Frequencies --    812.0370               844.6915               861.3701
 Red. masses --      4.8096                 1.5032                 1.2834
 Frc consts  --      1.8686                 0.6319                 0.5610
 IR Inten    --      8.0263                28.8826                 2.1761

                     16                     17                     18
                     A"                     A'                     A"
 Frequencies --   1000.9230              1013.9715              1024.3526
 Red. masses --      1.3009                 7.4762                 1.4364
 Frc consts  --      0.7679                 4.5288                 0.8881
 IR Inten    --      0.0100                 1.4553                 0.0004

                     19                     20                     21
                     A'                     A'                     A'
 Frequencies --   1094.2589              1114.4545              1119.4623
 Red. masses --      1.8785                 3.0296                 1.8663
 Frc consts  --      1.3253                 2.2170                 1.3780
 IR Inten    --      5.3344                53.0080                72.5819

                     22                     23                     24
                     A'                     A'                     A'
 Frequencies --   1175.1919              1254.0040              1281.4093
 Red. masses --      3.8382                 1.2980                 5.9273
 Frc consts  --      3.1232                 1.2026                 5.7344
 IR Inten    --    583.8211                18.4744                55.3273

                     25                     26                     27
                     A'                     A'                     A'
 Frequencies --   1365.4431              1460.7814              1468.4230
 Red. masses --      1.3511                 2.2091                 1.7689
 Frc consts  --      1.4842                 2.7774                 2.2473
 IR Inten    --      8.6290                42.0974                17.5604

                     28                     29                     30
                     A'                     A'                     A'
 Frequencies --   1509.4918              1604.8413              1649.8150
 Red. masses --      2.0480                 5.1250                 8.4494
 Frc consts  --      2.7495                 7.7769                13.5502
 IR Inten    --      5.0549                31.2222                20.9924

                     31                     32                     33
                     A'                     A'                     A'
 Frequencies --   1802.0798              3218.6866              3221.7971
 Red. masses --      8.5163                 1.0919                 1.0950
 Frc consts  --     16.2947                 6.6647                 6.6967
 IR Inten    --    298.8634                 1.1325                 5.4759

                     34                     35                     36
                     A'                     A'                     A'
 Frequencies --   3242.3295              3258.3667              3663.0953
 Red. masses --      1.0971                 1.0964                 1.0670
 Frc consts  --      6.7953                 6.8581                 8.4354
 IR Inten    --     18.6223                18.1929               434.7480

 - Thermochemistry -
 -------------------
 Temperature     0.001 Kelvin.  Pressure   1.00000 Atm.
 Atom     1 has atomic number  6 and mass  12.00000

 Molecular mass:   125.03510 amu.
 Principal axes and moments of inertia in atomic units:
                           1         2         3
     Eigenvalues --   443.680651422.723931866.40458
           X           -0.16911   0.98560   0.00000
           Y            0.98560   0.16911   0.00000
           Z           -0.00000   0.00000   1.00000
 This molecule is an asymmetric top.
 Rotational symmetry number  1.
 Warning -- assumption of classical behavior for rotation
           may cause significant error
 Rotational temperatures (Kelvin)      0.19522     0.06088     0.04641
 Rotational constants (GHZ):           4.06766     1.26851     0.96696
 Zero-point vibrational energy     272575.9 (Joules/Mol)
                                   65.14719 (Kcal/Mol)
 Vibrational temperatures:     91.90   225.66   365.68   523.19   570.90
          (Kelvin)            616.92   755.09   797.72   954.69   972.56
                             1007.26  1045.88  1168.34  1215.32  1239.32
                             1440.10  1458.88  1473.81  1574.39  1603.45
                             1610.66  1690.84  1804.23  1843.66  1964.57
                             2101.74  2112.73  2171.82  2309.01  2373.72
                             2592.79  4630.97  4635.45  4664.99  4688.06
                             5270.38

 Zero-point correction=                           0.103819 (Hartree/Particle)
 Thermal correction to Energy=                    0.103819
 Thermal correction to Enthalpy=                  0.103819
 Thermal correction to Gibbs Free Energy=         0.103819
 Sum of electronic and zero-point Energies=           -452.914583
 Sum of electronic and thermal Energies=              -452.914583
 Sum of electronic and thermal Enthalpies=            -452.914583
 Sum of electronic and thermal Free Energies=         -452.914583

                     E (Thermal)             CV                S
                      KCal/Mol        Cal/Mol-Kelvin    Cal/Mol-Kelvin
 Total                   65.147              5.962            -31.257
 Electronic               0.000              0.000              0.000
 Translational            0.000              2.981            -22.240
 Rotational               0.000              2.981             -9.018
 Vibrational             65.147              0.000              0.000

 Optimization completed.
    -- Stationary point found.
 Normal termination of Gaussian 16 at Thu Jan  2 15:28:33 2020.
