 Gaussian 16, Revision A.03,
 Gaussian 16:  ES64L-G16RevA.03 25-Dec-2016

 -------------------------------------------------------------------
 #p opt freq m062x/6-311++g(d,p) geom=connectivity temperature=0.001
 -------------------------------------------------------------------

 -----------------------------
 4_methyl_pyridine_n_oxide.sdf
 -----------------------------
 Symbolic Z-matrix:
 Charge =  0 Multiplicity = 1

 SCF Done:  E(RM062X) =  -362.694164223     A.U. after   15 cycles
 SCF Done:  E(RM062X) =  -362.701888337     A.U. after   12 cycles
 SCF Done:  E(RM062X) =  -362.702386950     A.U. after   12 cycles
 SCF Done:  E(RM062X) =  -362.702435734     A.U. after   12 cycles
 SCF Done:  E(RM062X) =  -362.702437000     A.U. after   10 cycles
 Optimization completed.
    -- Stationary point found.
 Normal termination of Gaussian 16 at Mon Oct 14 11:30:24 2019.

 ----------------------------------------------------------------------
 #P Geom=AllCheck Guess=TCheck SCRF=Check GenChk RM062X/6-311++G(d,p) F
 req
 ----------------------------------------------------------------------

 Structure from the checkpoint file:  "13.chk"
 -----------------------------
 4_methyl_pyridine_n_oxide.sdf
 -----------------------------
 Charge =  0 Multiplicity = 1

                         Standard orientation:
 ---------------------------------------------------------------------
 Center     Atomic      Atomic             Coordinates (Angstroms)
 Number     Number       Type             X           Y           Z
 ---------------------------------------------------------------------
      1          6           0        0.605915    1.183541   -0.010286
      2          6           0       -0.773223    1.168820   -0.002046
      3          7           0       -1.470704   -0.000003    0.003482
      4          6           0       -0.773094   -1.168817   -0.002040
      5          6           0        0.605980   -1.183425   -0.010292
      6          6           0        1.342514    0.000119   -0.011232
      7          8           0       -2.743616   -0.000107    0.009815
      8          6           0        2.845790   -0.000038    0.013003
      9          1           0        1.105809    2.145106   -0.016770
     10          1           0       -1.400276    2.048263   -0.002503
     11          1           0       -1.400096   -2.048298   -0.002500
     12          1           0        1.105969   -2.144950   -0.016783
     13          1           0        3.216333   -0.006298    1.041831
     14          1           0        3.246395   -0.881303   -0.489726
     15          1           0        3.246425    0.887157   -0.479091
 ---------------------------------------------------------------------

 SCF Done:  E(RM062X) =  -362.702437000     A.U. after    1 cycles

 The electronic state is 1-A.
 Alpha  occ. eigenvalues --  -19.58696 -14.90228 -10.59717 -10.59715 -10.57946
 Alpha  occ. eigenvalues --  -10.57355 -10.57349 -10.55516  -1.23511  -1.01844
 Alpha  occ. eigenvalues --   -0.92315  -0.89600  -0.81667  -0.76530  -0.70881
 Alpha  occ. eigenvalues --   -0.60577  -0.60489  -0.56638  -0.55796  -0.52593
 Alpha  occ. eigenvalues --   -0.52081  -0.50709  -0.48652  -0.44777  -0.44226
 Alpha  occ. eigenvalues --   -0.40403  -0.34530  -0.32766  -0.26998
 Alpha virt. eigenvalues --   -0.01816  -0.01031  -0.00868   0.00466   0.01165
 Alpha virt. eigenvalues --    0.02588   0.03180   0.03673   0.04914   0.05947
 Alpha virt. eigenvalues --    0.06499   0.07822   0.08460   0.08688   0.10580

 Mulliken charges:
               1
     1  C    0.172161
     2  C   -0.531239
     3  N   -0.104454
     4  C   -0.532699
     5  C    0.180664
     6  C    0.413077
     7  O   -0.123236
     8  C   -0.871934
     9  H    0.224182
    10  H    0.220266
    11  H    0.220147
    12  H    0.224833
    13  H    0.181159
    14  H    0.163351
    15  H    0.163720
 Sum of Mulliken charges =   0.00000

 Dipole moment (field-independent basis, Debye):
    X=              5.2788    Y=             -0.0007    Z=              0.0146  Tot=              5.2788
 Quadrupole moment (field-independent basis, Debye-Ang):
   XX=            -57.8508   YY=            -39.6074   ZZ=            -49.8755
   XY=             -0.0025   XZ=              0.1479   YZ=              0.0001

  Exact polarizability: 119.871  -0.009  81.307   0.457  -0.000  46.986
 Approx polarizability: 153.682  -0.011 107.655   0.401  -0.001  60.869

                      1                      2                      3
                      A                      A                      A
 Frequencies --     46.6157               138.5558               315.5981
 Red. masses --      1.0381                 4.6611                 2.8745
 Frc consts  --      0.0013                 0.0527                 0.1687
 IR Inten    --      0.2354                 2.5126                 0.8331

                      4                      5                      6
                      A                      A                      A
 Frequencies --    320.5422               420.7366               477.1477
 Red. masses --      4.1716                 3.0993                 6.4301
 Frc consts  --      0.2525                 0.3232                 0.8625
 IR Inten    --     10.0048                 0.0000                 4.9824

                      7                      8                      9
                      A                      A                      A
 Frequencies --    500.1578               521.4119               679.8974
 Red. masses --      5.3603                 2.6224                 6.7645
 Frc consts  --      0.7901                 0.4201                 1.8423
 IR Inten    --      6.3811                14.4962                 0.0772

                     10                     11                     12
                      A                      A                      A
 Frequencies --    679.9494               784.4334               839.3460
 Red. masses --      3.9634                 4.3913                 1.2538
 Frc consts  --      1.0796                 1.5921                 0.5204
 IR Inten    --      3.3481                29.6801                 0.0121

                     13                     14                     15
                      A                      A                      A
 Frequencies --    840.8971               890.9767               932.9107
 Red. masses --      1.5909                 6.1213                 1.1875
 Frc consts  --      0.6628                 2.8630                 0.6089
 IR Inten    --     53.7067                 8.3347                 0.3253

                     16                     17                     18
                      A                      A                      A
 Frequencies --    970.4632              1007.5816              1055.3734
 Red. masses --      1.3236                 1.4363                 1.8903
 Frc consts  --      0.7345                 0.8592                 1.2405
 IR Inten    --      0.0048                 0.4183                25.5153

                     19                     20                     21
                      A                      A                      A
 Frequencies --   1063.0169              1133.0705              1202.1015
 Red. masses --      1.8575                 1.2498                 1.1378
 Frc consts  --      1.2367                 0.9454                 0.9688
 IR Inten    --      3.5445                 6.3689                37.8288

                     22                     23                     24
                      A                      A                      A
 Frequencies --   1241.2453              1255.5189              1334.8022
 Red. masses --      7.0544                 2.5373                 1.2761
 Frc consts  --      6.4037                 2.3565                 1.3396
 IR Inten    --      3.7185                 1.5302                 0.0150

                     25                     26                     27
                      A                      A                      A
 Frequencies --   1341.7239              1419.3638              1478.7007
 Red. masses --      7.3258                 1.2600                 1.4688
 Frc consts  --      7.7702                 1.4955                 1.8922
 IR Inten    --    315.0266                 0.5321                 1.6079

                     28                     29                     30
                      A                      A                      A
 Frequencies --   1494.0618              1511.4155              1536.5428
 Red. masses --      1.0487                 1.7624                 2.8036
 Frc consts  --      1.3792                 2.3721                 3.8999
 IR Inten    --      8.8956                12.0115               197.1463

                     31                     32                     33
                      A                      A                      A
 Frequencies --   1614.6170              1708.7688              3064.3518
 Red. masses --      6.5782                 6.1274                 1.0384
 Frc consts  --     10.1041                10.5414                 5.7451
 IR Inten    --      0.6554                16.3589                17.1778

                     34                     35                     36
                      A                      A                      A
 Frequencies --   3128.8810              3153.4941              3215.1655
 Red. masses --      1.0981                 1.1032                 1.0914
 Frc consts  --      6.3341                 6.4636                 6.6475
 IR Inten    --      8.8195                 8.2922                 3.1326

                     37                     38                     39
                      A                      A                      A
 Frequencies --   3215.3439              3264.8246              3265.9355
 Red. masses --      1.0914                 1.0944                 1.0958
 Frc consts  --      6.6482                 6.8731                 6.8866
 IR Inten    --      1.5436                 2.7133                 0.3005

 - Thermochemistry -
 -------------------
 Temperature     0.001 Kelvin.  Pressure   1.00000 Atm.
 Atom     1 has atomic number  6 and mass  12.00000

 Molecular mass:   109.05276 amu.
 Principal axes and moments of inertia in atomic units:
                           1         2         3
     Eigenvalues --   311.699121184.057701484.50578
           X            1.00000  -0.00001   0.00054
           Y            0.00001   1.00000   0.00000
           Z           -0.00054  -0.00000   1.00000
 This molecule is an asymmetric top.
 Rotational symmetry number  1.
 Rotational temperatures (Kelvin)      0.27788     0.07315     0.05835
 Rotational constants (GHZ):           5.79001     1.52420     1.21572
 Zero-point vibrational energy     317402.4 (Joules/Mol)
                                   75.86100 (Kcal/Mol)
 Vibrational temperatures:     67.07   199.35   454.08   461.19   605.35
          (Kelvin)            686.51   719.62   750.20   978.22   978.30
                             1128.62  1207.63  1209.86  1281.92  1342.25
                             1396.28  1449.69  1518.45  1529.44  1630.24
                             1729.56  1785.88  1806.41  1920.48  1930.44
                             2042.15  2127.52  2149.62  2174.59  2210.74
                             2323.07  2458.54  4408.92  4501.76  4537.17
                             4625.91  4626.16  4697.35  4698.95

 Zero-point correction=                           0.120892 (Hartree/Particle)
 Thermal correction to Energy=                    0.120892
 Thermal correction to Enthalpy=                  0.120892
 Thermal correction to Gibbs Free Energy=         0.120892
 Sum of electronic and zero-point Energies=           -362.581545
 Sum of electronic and thermal Energies=              -362.581545
 Sum of electronic and thermal Enthalpies=            -362.581545
 Sum of electronic and thermal Free Energies=         -362.581545

                     E (Thermal)             CV                S
                      KCal/Mol        Cal/Mol-Kelvin    Cal/Mol-Kelvin
 Total                   75.861              5.962            -32.426
 Electronic               0.000              0.000              0.000
 Translational            0.000              2.981            -22.647
 Rotational               0.000              2.981             -9.778
 Vibrational             75.861              0.000              0.000

                           ! Non-Optimized Parameters !
 Normal termination of Gaussian 16 at Mon Oct 14 11:31:31 2019.
