 Gaussian 16, Revision A.03,
 Gaussian 16:  ES64L-G16RevA.03 25-Dec-2016

 -------------------------------------------------------------------
 #p opt freq m062x/6-311++g(d,p) geom=connectivity temperature=0.001
 -------------------------------------------------------------------

 -----------------------------
 4_methyl_pyridine_n_oxide.sdf
 -----------------------------
 Symbolic Z-matrix:
 Charge =  1 Multiplicity = 1

 SCF Done:  E(RM062X) =  -363.061647027     A.U. after   13 cycles
 SCF Done:  E(RM062X) =  -363.070987813     A.U. after   12 cycles
 SCF Done:  E(RM062X) =  -363.071726623     A.U. after   11 cycles
 SCF Done:  E(RM062X) =  -363.071911791     A.U. after   11 cycles
 SCF Done:  E(RM062X) =  -363.072050792     A.U. after   11 cycles
 SCF Done:  E(RM062X) =  -363.072178245     A.U. after   11 cycles
 SCF Done:  E(RM062X) =  -363.072291516     A.U. after   11 cycles
 SCF Done:  E(RM062X) =  -363.072315552     A.U. after   11 cycles
 SCF Done:  E(RM062X) =  -363.072316875     A.U. after    9 cycles
 SCF Done:  E(RM062X) =  -363.072317065     A.U. after    8 cycles
 SCF Done:  E(RM062X) =  -363.072322232     A.U. after   11 cycles
 SCF Done:  E(RM062X) =  -363.072323196     A.U. after   11 cycles
 SCF Done:  E(RM062X) =  -363.072328989     A.U. after   11 cycles
 SCF Done:  E(RM062X) =  -363.072335109     A.U. after   11 cycles
 SCF Done:  E(RM062X) =  -363.072337060     A.U. after   10 cycles
 SCF Done:  E(RM062X) =  -363.072337234     A.U. after    9 cycles
 SCF Done:  E(RM062X) =  -363.072337257     A.U. after    8 cycles
 SCF Done:  E(RM062X) =  -363.072337308     A.U. after    8 cycles
 SCF Done:  E(RM062X) =  -363.072337316     A.U. after    7 cycles
 Optimization completed.
    -- Stationary point found.
 Normal termination of Gaussian 16 at Mon Oct 14 11:24:01 2019.

 ----------------------------------------------------------------------
 #P Geom=AllCheck Guess=TCheck SCRF=Check GenChk RM062X/6-311++G(d,p) F
 req
 ----------------------------------------------------------------------

 Structure from the checkpoint file:  "13_p.chk"
 -----------------------------
 4_methyl_pyridine_n_oxide.sdf
 -----------------------------
 Charge =  1 Multiplicity = 1

                         Standard orientation:
 ---------------------------------------------------------------------
 Center     Atomic      Atomic             Coordinates (Angstroms)
 Number     Number       Type             X           Y           Z
 ---------------------------------------------------------------------
      1          6           0       -0.659842    1.199806   -0.009799
      2          6           0        0.715646    1.183413    0.007304
      3          7           0        1.354436   -0.000004   -0.007572
      4          6           0        0.715598   -1.183425    0.007305
      5          6           0       -0.659870   -1.199756   -0.009797
      6          6           0       -1.383543    0.000050   -0.017557
      7          8           0        2.720159   -0.000027    0.106130
      8          6           0       -2.878490   -0.000012    0.000706
      9          1           0       -1.167564    2.156008   -0.006615
     10          1           0        1.349285    2.060281    0.035486
     11          1           0        1.349224   -2.060303    0.035457
     12          1           0       -1.167646   -2.155932   -0.006608
     13          1           0       -3.280575    0.889021   -0.483847
     14          1           0       -3.280440   -0.888810   -0.484410
     15          1           0       -3.223742   -0.000416    1.039643
     16          1           0        3.082147   -0.000058   -0.794117
 ---------------------------------------------------------------------

 SCF Done:  E(RM062X) =  -363.072337316     A.U. after    1 cycles

 The electronic state is 1-A.
 Alpha  occ. eigenvalues --  -19.88200 -15.09347 -10.80272 -10.80269 -10.77146
 Alpha  occ. eigenvalues --  -10.75007 -10.75005 -10.69635  -1.46297  -1.25950
 Alpha  occ. eigenvalues --   -1.11983  -1.09425  -0.99225  -0.95480  -0.89524
 Alpha  occ. eigenvalues --   -0.87160  -0.79075  -0.78796  -0.75028  -0.72110
 Alpha  occ. eigenvalues --   -0.71819  -0.67422  -0.65097  -0.63952  -0.61664
 Alpha  occ. eigenvalues --   -0.61180  -0.60500  -0.53105  -0.52975
 Alpha virt. eigenvalues --   -0.21633  -0.18500  -0.14022  -0.11897  -0.10714
 Alpha virt. eigenvalues --   -0.09772  -0.08350  -0.07752  -0.07724  -0.07071
 Alpha virt. eigenvalues --   -0.05679  -0.05281  -0.04881  -0.03930  -0.03580

 Mulliken charges:
               1
     1  C    0.297456
     2  C   -0.462995
     3  N   -0.142462
     4  C   -0.463041
     5  C    0.297835
     6  C    0.246534
     7  O    0.049444
     8  C   -0.925768
     9  H    0.297368
    10  H    0.278017
    11  H    0.278012
    12  H    0.297393
    13  H    0.193414
    14  H    0.193395
    15  H    0.232116
    16  H    0.333283
 Sum of Mulliken charges =   1.00000

 Dipole moment (field-independent basis, Debye):
    X=              0.3920    Y=             -0.0001    Z=             -1.5147  Tot=              1.5646
 Quadrupole moment (field-independent basis, Debye-Ang):
   XX=            -24.0418   YY=            -32.5084   ZZ=            -45.8361
   XY=              0.0003   XZ=             -5.9089   YZ=              0.0001

  Exact polarizability: 100.267   0.001  76.344  -1.671  -0.000  43.850
 Approx polarizability: 118.484   0.002 102.148  -1.430  -0.000  57.628

                      1                      2                      3
                      A                      A                      A
 Frequencies --     53.4073               136.2739               234.5474
 Red. masses --      1.0382                 3.9164                 1.1906
 Frc consts  --      0.0017                 0.0429                 0.0386
 IR Inten    --      1.1431                 2.0091               124.6694

                      4                      5                      6
                      A                      A                      A
 Frequencies --    320.8425               326.0709               418.0440
 Red. masses --      2.7897                 4.1027                 2.7715
 Frc consts  --      0.1692                 0.2570                 0.2854
 IR Inten    --      0.1440                 5.6328                 4.6196

                      7                      8                      9
                      A                      A                      A
 Frequencies --    460.9620               467.5251               492.5428
 Red. masses --      3.7272                 5.8803                 2.7206
 Frc consts  --      0.4666                 0.7573                 0.3889
 IR Inten    --      0.0029                 2.5399                27.0845

                     10                     11                     12
                      A                      A                      A
 Frequencies --    674.3088               688.1595               767.1553
 Red. masses --      6.6413                 3.4812                 4.4318
 Frc consts  --      1.7792                 0.9713                 1.5367
 IR Inten    --      0.0481                 6.5748                 5.1059

                     13                     14                     15
                      A                      A                      A
 Frequencies --    844.6771               867.3652               874.2909
 Red. masses --      1.3132                 1.2556                 5.7343
 Frc consts  --      0.5520                 0.5566                 2.5825
 IR Inten    --     47.1082                 0.2711                 5.7143

                     16                     17                     18
                      A                      A                      A
 Frequencies --    984.8307              1008.7910              1019.3005
 Red. masses --      1.2556                 1.3592                 1.4010
 Frc consts  --      0.7175                 0.8150                 0.8576
 IR Inten    --      1.7627                 0.0135                 0.0404

                     19                     20                     21
                      A                      A                      A
 Frequencies --   1054.2345              1076.4799              1152.5832
 Red. masses --      1.6522                 2.5086                 1.2469
 Frc consts  --      1.0819                 1.7127                 0.9759
 IR Inten    --     17.8817                 3.4383                 2.6390

                     22                     23                     24
                      A                      A                      A
 Frequencies --   1218.2151              1249.9622              1263.6887
 Red. masses --      1.1780                 2.4539                 5.0069
 Frc consts  --      1.0300                 2.2589                 4.7108
 IR Inten    --      4.0532                20.2386                 8.3009

                     25                     26                     27
                      A                      A                      A
 Frequencies --   1311.7576              1346.7255              1411.2518
 Red. masses --      6.4096                 1.3151                 1.2133
 Frc consts  --      6.4981                 1.4053                 1.4237
 IR Inten    --     19.1346                 0.2347                77.2106

                     28                     29                     30
                      A                      A                      A
 Frequencies --   1414.0301              1463.5789              1492.8212
 Red. masses --      1.2277                 1.2058                 1.0740
 Frc consts  --      1.4463                 1.5217                 1.4102
 IR Inten    --     23.0334                 1.2496                12.0897

                     31                     32                     33
                      A                      A                      A
 Frequencies --   1512.4204              1554.7657              1636.0374
 Red. masses --      2.2971                 2.6725                 7.0302
 Frc consts  --      3.0958                 3.8063                11.0867
 IR Inten    --     44.5663                38.3083                 7.5566

                     34                     35                     36
                      A                      A                      A
 Frequencies --   1697.8593              3067.4540              3141.9639
 Red. masses --      5.6465                 1.0420                 1.0930
 Frc consts  --      9.5904                 5.7765                 6.3573
 IR Inten    --     84.2339                 7.2504                 2.7876

                     37                     38                     39
                      A                      A                      A
 Frequencies --   3178.2908              3234.5692              3234.9858
 Red. masses --      1.1054                 1.0932                 1.0922
 Frc consts  --      6.5787                 6.7387                 6.7342
 IR Inten    --      0.2063                 8.3618                 1.9325

                     40                     41                     42
                      A                      A                      A
 Frequencies --   3250.9615              3252.9443              3774.6709
 Red. masses --      1.0983                 1.1004                 1.0686
 Frc consts  --      6.8390                 6.8603                 8.9703
 IR Inten    --     42.8831                 8.2824               190.6918

 - Thermochemistry -
 -------------------
 Temperature     0.001 Kelvin.  Pressure   1.00000 Atm.
 Atom     1 has atomic number  6 and mass  12.00000

 Molecular mass:   110.06059 amu.
 Principal axes and moments of inertia in atomic units:
                           1         2         3
     Eigenvalues --   321.549581211.882021516.53154
           X            0.99997   0.00000  -0.00733
           Y           -0.00000   1.00000   0.00000
           Z            0.00733  -0.00000   0.99997
 This molecule is an asymmetric top.
 Rotational symmetry number  1.
 Rotational temperatures (Kelvin)      0.26936     0.07147     0.05711
 Rotational constants (GHZ):           5.61264     1.48921     1.19005
 Zero-point vibrational energy     350693.3 (Joules/Mol)
                                   83.81772 (Kcal/Mol)
 Vibrational temperatures:     76.84   196.07   337.46   461.62   469.14
          (Kelvin)            601.47   663.22   672.66   708.66   970.18
                              990.11  1103.77  1215.30  1247.95  1257.91
                             1416.95  1451.43  1466.55  1516.81  1548.81
                             1658.31  1752.74  1798.42  1818.17  1887.33
                             1937.64  2030.48  2034.47  2105.76  2147.84
                             2176.04  2236.96  2353.89  2442.84  4413.38
                             4520.59  4572.85  4653.82  4654.42  4677.41
                             4680.26  5430.91

 Zero-point correction=                           0.133572 (Hartree/Particle)
 Thermal correction to Energy=                    0.133572
 Thermal correction to Enthalpy=                  0.133572
 Thermal correction to Gibbs Free Energy=         0.133572
 Sum of electronic and zero-point Energies=           -362.938765
 Sum of electronic and thermal Energies=              -362.938765
 Sum of electronic and thermal Enthalpies=            -362.938765
 Sum of electronic and thermal Free Energies=         -362.938765

                     E (Thermal)             CV                S
                      KCal/Mol        Cal/Mol-Kelvin    Cal/Mol-Kelvin
 Total                   83.818              5.962            -32.323
 Electronic               0.000              0.000              0.000
 Translational            0.000              2.981            -22.620
 Rotational               0.000              2.981             -9.703
 Vibrational             83.818              0.000              0.000

 Optimization completed.
    -- Stationary point found.
 Normal termination of Gaussian 16 at Mon Oct 14 11:25:15 2019.
