 Gaussian 16, Revision A.03,
 Gaussian 16:  ES64L-G16RevA.03 25-Dec-2016

 -------------------------------------------------------------------
 #p opt freq m062x/6-311++g(d,p) geom=connectivity temperature=0.001
 -------------------------------------------------------------------

 -------------
 ricobenzadole
 -------------
 Symbolic Z-matrix:
 Charge =  0 Multiplicity = 1

 SCF Done:  E(RM062X) =  -1254.25743562     A.U. after   17 cycles
 SCF Done:  E(RM062X) =  -1254.29348947     A.U. after   15 cycles
 SCF Done:  E(RM062X) =  -1254.30835594     A.U. after   15 cycles
 SCF Done:  E(RM062X) =  -1254.31004551     A.U. after   14 cycles
 SCF Done:  E(RM062X) =  -1254.31061695     A.U. after   14 cycles
 SCF Done:  E(RM062X) =  -1254.31094092     A.U. after   14 cycles
 SCF Done:  E(RM062X) =  -1254.31180878     A.U. after   16 cycles
 SCF Done:  E(RM062X) =  -1254.30911746     A.U. after   17 cycles
 SCF Done:  E(RM062X) =  -1254.31282196     A.U. after   14 cycles
 SCF Done:  E(RM062X) =  -1254.31445472     A.U. after   13 cycles
 SCF Done:  E(RM062X) =  -1254.31545241     A.U. after   15 cycles
 SCF Done:  E(RM062X) =  -1254.31556844     A.U. after   12 cycles
 SCF Done:  E(RM062X) =  -1254.31557442     A.U. after   11 cycles
 SCF Done:  E(RM062X) =  -1254.31557541     A.U. after   12 cycles
 SCF Done:  E(RM062X) =  -1254.31557615     A.U. after   10 cycles
 SCF Done:  E(RM062X) =  -1254.31557634     A.U. after    9 cycles
 SCF Done:  E(RM062X) =  -1254.31557651     A.U. after   10 cycles
 SCF Done:  E(RM062X) =  -1254.31557661     A.U. after    9 cycles
 SCF Done:  E(RM062X) =  -1254.31557663     A.U. after    9 cycles
 Optimization completed.
    -- Stationary point found.
 Normal termination of Gaussian 16 at Mon Oct 14 12:37:16 2019.

 ----------------------------------------------------------------------
 #P Geom=AllCheck Guess=TCheck SCRF=Check GenChk RM062X/6-311++G(d,p) F
 req
 ----------------------------------------------------------------------

 Structure from the checkpoint file:  "14.chk"
 -------------
 ricobenzadole
 -------------
 Charge =  0 Multiplicity = 1

                         Standard orientation:
 ---------------------------------------------------------------------
 Center     Atomic      Atomic             Coordinates (Angstroms)
 Number     Number       Type             X           Y           Z
 ---------------------------------------------------------------------
      1          6           0       -4.415510    3.029282    1.101933
      2          6           0       -4.388658    0.598594    0.453722
      3          6           0       -3.799914    1.975010    0.181965
      4         16           0       -3.887354   -0.687749   -0.746000
      5          6           0       -2.133952   -0.737257   -0.320509
      6          8           0       -4.497912   -1.959473   -0.209911
      7          6           0       -1.738943   -1.616335    0.695309
      8          6           0       -0.405880   -1.701456    1.067362
      9          6           0        0.491283   -0.883673    0.387453
     10          6           0        0.098102   -0.007031   -0.644481
     11          6           0       -1.243357    0.063254   -1.017911
     12          7           0        1.861427   -0.718634    0.486009
     13          6           0        2.195377    0.210671   -0.455137
     14          7           0        1.197000    0.667150   -1.152628
     15          7           0        3.498372    0.635903   -0.651103
     16          6           0        4.582368    0.191920    0.055621
     17          8           0        5.691434    0.794764   -0.377084
     18          8           0        4.543459   -0.627503    0.943490
     19          6           0        6.894976    0.402957    0.292271
     20          1           0       -3.981043    4.012477    0.914091
     21          1           0       -5.494660    3.101745    0.948763
     22          1           0       -4.241565    2.778982    2.151033
     23          1           0       -5.478717    0.604426    0.369485
     24          1           0       -4.119231    0.206293    1.437944
     25          1           0       -3.976442    2.250219   -0.863119
     26          1           0       -2.717415    1.946910    0.327058
     27          1           0       -2.495944   -2.242844    1.154505
     28          1           0       -0.081382   -2.383074    1.843821
     29          1           0       -1.564461    0.713631   -1.824100
     30          1           0        2.526581   -1.165989    1.101937
     31          1           0        3.633570    1.323244   -1.378997
     32          1           0        7.686815    0.977473   -0.179239
     33          1           0        6.827832    0.637228    1.354123
     34          1           0        7.064931   -0.665604    0.165208
 ---------------------------------------------------------------------

 SCF Done:  E(RM062X) =  -1254.31557663     A.U. after    1 cycles

 The electronic state is 1-A.
 Alpha  occ. eigenvalues --  -89.99008 -19.70053 -19.64023 -19.57069 -14.82411
 Alpha  occ. eigenvalues --  -14.81571 -14.74823 -10.73622 -10.67328 -10.61617
 Alpha  occ. eigenvalues --  -10.59649 -10.58267 -10.56995 -10.56453 -10.56191
 Alpha  occ. eigenvalues --  -10.56076 -10.55312 -10.54870 -10.53471  -8.34671
 Alpha  occ. eigenvalues --   -6.26735  -6.26650  -6.26317  -1.28222  -1.18553
 Alpha  occ. eigenvalues --   -1.16568  -1.12171  -1.08028  -1.00827  -0.96987
 Alpha  occ. eigenvalues --   -0.91331  -0.87731  -0.86474  -0.84030  -0.81464
 Alpha  occ. eigenvalues --   -0.75624  -0.74455  -0.72167  -0.70851  -0.69354
 Alpha  occ. eigenvalues --   -0.67634  -0.65313  -0.64327  -0.61644  -0.61281
 Alpha  occ. eigenvalues --   -0.57702  -0.57192  -0.56004  -0.55343  -0.53867
 Alpha  occ. eigenvalues --   -0.53162  -0.52430  -0.51826  -0.51504  -0.51176
 Alpha  occ. eigenvalues --   -0.49044  -0.47593  -0.46742  -0.45567  -0.44293
 Alpha  occ. eigenvalues --   -0.44054  -0.43852  -0.42398  -0.41252  -0.41108
 Alpha  occ. eigenvalues --   -0.40613  -0.40461  -0.40077  -0.37722  -0.37015
 Alpha  occ. eigenvalues --   -0.32625  -0.30830  -0.28576  -0.27652
 Alpha virt. eigenvalues --   -0.01364  -0.00698  -0.00242   0.00334   0.00575
 Alpha virt. eigenvalues --    0.01279   0.01590   0.01978   0.02211   0.02384
 Alpha virt. eigenvalues --    0.02764   0.03446   0.03873   0.04038   0.04345

 Mulliken charges:
               1
     1  C   -0.659098
     2  C   -0.777937
     3  C   -0.181155
     4  S    1.046685
     5  C   -0.304453
     6  O   -0.444667
     7  C    0.267616
     8  C   -0.350637
     9  C    0.030299
    10  C   -0.093467
    11  C   -0.702934
    12  N   -0.253051
    13  C    0.254979
    14  N   -0.085215
    15  N   -0.575012
    16  C    0.054995
    17  O   -0.065856
    18  O   -0.304440
    19  C   -0.198458
    20  H    0.163383
    21  H    0.156644
    22  H    0.162772
    23  H    0.234669
    24  H    0.225908
    25  H    0.163698
    26  H    0.193140
    27  H    0.282501
    28  H    0.192947
    29  H    0.240719
    30  H    0.382607
    31  H    0.361320
    32  H    0.189906
    33  H    0.195479
    34  H    0.196115
 Sum of Mulliken charges =  -0.00000

 Dipole moment (field-independent basis, Debye):
    X=              6.5537    Y=              3.8076    Z=              1.4172  Tot=              7.7109
 Quadrupole moment (field-independent basis, Debye-Ang):
   XX=           -102.7586   YY=           -124.7048   ZZ=           -119.4337
   XY=            -16.2170   XZ=             -2.9563   YZ=             -2.9426

  Exact polarizability: 286.501   7.696 163.210   2.863 -18.183 143.878
 Approx polarizability: 287.880  16.266 213.774   5.731 -39.848 204.594

                      1                      2                      3
                      A                      A                      A
 Frequencies --     24.1430                30.8057                52.2329
 Red. masses --      4.8632                 4.8120                 4.3849
 Frc consts  --      0.0017                 0.0027                 0.0070
 IR Inten    --      0.4732                 0.6978                 0.7053

                      4                      5                      6
                      A                      A                      A
 Frequencies --     68.8491                76.3098                87.5862
 Red. masses --      1.7011                 5.0072                 5.4304
 Frc consts  --      0.0048                 0.0172                 0.0245
 IR Inten    --      0.4756                 3.9693                 0.2902

                      7                      8                      9
                      A                      A                      A
 Frequencies --    111.9381               129.8578               145.0110
 Red. masses --      3.4686                 2.2184                 2.3541
 Frc consts  --      0.0256                 0.0220                 0.0292
 IR Inten    --      0.3519                 5.4730                 1.8691

                     10                     11                     12
                      A                      A                      A
 Frequencies --    163.0625               169.4380               194.7452
 Red. masses --      2.4063                 5.2278                 4.3607
 Frc consts  --      0.0377                 0.0884                 0.0974
 IR Inten    --      1.2609                 7.7025                 5.8734

                     13                     14                     15
                      A                      A                      A
 Frequencies --    221.8894               235.7217               251.0405
 Red. masses --      6.2878                 6.1807                 1.1223
 Frc consts  --      0.1824                 0.2023                 0.0417
 IR Inten    --      1.3468                 3.1555                 0.0769

                     16                     17                     18
                      A                      A                      A
 Frequencies --    269.6007               310.9098               336.9175
 Red. masses --      4.9407                 4.9862                 6.3762
 Frc consts  --      0.2116                 0.2840                 0.4264
 IR Inten    --     20.3387                 0.7001                10.7915

                     19                     20                     21
                      A                      A                      A
 Frequencies --    357.9029               380.2375               397.4295
 Red. masses --      5.4783                 5.6343                 6.1123
 Frc consts  --      0.4135                 0.4800                 0.5688
 IR Inten    --      6.3774                 9.0596                 8.0245

                     22                     23                     24
                      A                      A                      A
 Frequencies --    413.0239               441.3282               457.5761
 Red. masses --      5.3500                 3.1593                 7.3632
 Frc consts  --      0.5377                 0.3625                 0.9083
 IR Inten    --      8.9337                 2.8635                14.4133

                     25                     26                     27
                      A                      A                      A
 Frequencies --    534.8989               546.5851               595.3056
 Red. masses --      5.8060                 1.1002                 1.3310
 Frc consts  --      0.9788                 0.1937                 0.2779
 IR Inten    --     14.6633               124.2707                47.0774

                     28                     29                     30
                      A                      A                      A
 Frequencies --    597.0852               630.8839               704.2131
 Red. masses --      5.9431                 3.0985                 6.8445
 Frc consts  --      1.2484                 0.7266                 1.9999
 IR Inten    --      5.4513                30.6529                 3.5356

                     31                     32                     33
                      A                      A                      A
 Frequencies --    729.6408               746.5167               747.8839
 Red. masses --      6.3556                 3.1866                 1.3003
 Frc consts  --      1.9935                 1.0463                 0.4285
 IR Inten    --      0.2324                 9.8153                 7.1014

                     34                     35                     36
                      A                      A                      A
 Frequencies --    757.7525               768.3787               780.0692
 Red. masses --      4.7789                 5.4142                 6.2007
 Frc consts  --      1.6167                 1.8834                 2.2231
 IR Inten    --     11.9311                 0.4681                15.2306

                     37                     38                     39
                      A                      A                      A
 Frequencies --    789.1093               836.4113               874.8363
 Red. masses --      9.6485                 1.3989                 1.2550
 Frc consts  --      3.5399                 0.5766                 0.5659
 IR Inten    --     27.3508                35.1962                 6.8460

                     40                     41                     42
                      A                      A                      A
 Frequencies --    877.5955               906.2119               926.8338
 Red. masses --      3.7108                 1.4016                 1.8098
 Frc consts  --      1.6839                 0.6781                 0.9160
 IR Inten    --      2.4487                11.8096                 1.3056

                     43                     44                     45
                      A                      A                      A
 Frequencies --    937.1730               984.0798              1010.1019
 Red. masses --      5.6993                 1.3009                 5.5257
 Frc consts  --      2.9493                 0.7423                 3.3217
 IR Inten    --     10.7768                 0.7506                 9.1836

                     46                     47                     48
                      A                      A                      A
 Frequencies --   1049.2097              1053.3124              1068.4941
 Red. masses --      5.3267                 7.3071                 3.1722
 Frc consts  --      3.4549                 4.7765                 2.1338
 IR Inten    --    122.4557                23.7314                39.0917

                     49                     50                     51
                      A                      A                      A
 Frequencies --   1078.0995              1081.6511              1122.1240
 Red. masses --      2.0091                 1.3428                 2.1114
 Frc consts  --      1.3759                 0.9257                 1.5664
 IR Inten    --     16.5182                13.1661                 3.5958

                     52                     53                     54
                      A                      A                      A
 Frequencies --   1137.0576              1151.3940              1190.7990
 Red. masses --      2.6930                 1.3097                 1.2746
 Frc consts  --      2.0514                 1.0230                 1.0648
 IR Inten    --     10.5786                 2.2540                 0.8781

                     55                     56                     57
                      A                      A                      A
 Frequencies --   1221.8864              1231.3398              1239.9016
 Red. masses --      1.6284                 1.5317                 1.3908
 Frc consts  --      1.4324                 1.3683                 1.2598
 IR Inten    --      4.2882                 2.4377                 0.8484

                     58                     59                     60
                      A                      A                      A
 Frequencies --   1258.7389              1266.3932              1272.0050
 Red. masses --      1.8381                 1.3843                 2.3823
 Frc consts  --      1.7159                 1.3080                 2.2710
 IR Inten    --      3.2762                51.5814               218.3441

                     61                     62                     63
                      A                      A                      A
 Frequencies --   1281.9779              1326.5597              1331.8626
 Red. masses --      3.1164                 1.2217                 3.9196
 Frc consts  --      3.0176                 1.2667                 4.0965
 IR Inten    --    615.9250                17.8784                97.8747

                     64                     65                     66
                      A                      A                      A
 Frequencies --   1378.2521              1398.2783              1416.4445
 Red. masses --      1.4662                 3.2599                 1.2530
 Frc consts  --      1.6410                 3.7552                 1.4812
 IR Inten    --      3.3969                 8.6397                 2.2331

                     67                     68                     69
                      A                      A                      A
 Frequencies --   1463.3469              1469.5872              1479.5019
 Red. masses --      1.1081                 1.4477                 4.5182
 Frc consts  --      1.3981                 1.8421                 5.8270
 IR Inten    --      7.5510                96.9081               126.2437

                     70                     71                     72
                      A                      A                      A
 Frequencies --   1497.6418              1498.8702              1500.9966
 Red. masses --      1.0419                 1.0519                 2.6971
 Frc consts  --      1.3769                 1.3923                 3.5802
 IR Inten    --     11.9512                 4.1388                85.8897

                     73                     74                     75
                      A                      A                      A
 Frequencies --   1505.4190              1511.3001              1512.6644
 Red. masses --      1.0379                 1.1458                 1.0841
 Frc consts  --      1.3859                 1.5420                 1.4615
 IR Inten    --      8.8963                54.1053                 5.4083

                     76                     77                     78
                      A                      A                      A
 Frequencies --   1524.0699              1545.6046              1639.5713
 Red. masses --      3.3953                 3.1412                 6.1452
 Frc consts  --      4.6466                 4.4213                 9.7331
 IR Inten    --    245.7789                94.6186               594.7566

                     79                     80                     81
                      A                      A                      A
 Frequencies --   1651.7481              1710.6305              1829.6808
 Red. masses --      8.0091                 6.5328                10.3777
 Frc consts  --     12.8742                11.2632                20.4692
 IR Inten    --    110.7354               377.5859               314.9715

                     82                     83                     84
                      A                      A                      A
 Frequencies --   3059.1909              3063.1765              3074.1280
 Red. masses --      1.0600                 1.0385                 1.0580
 Frc consts  --      5.8448                 5.7409                 5.8908
 IR Inten    --      5.4353                26.8538                10.2749

                     85                     86                     87
                      A                      A                      A
 Frequencies --   3090.8688              3106.6996              3132.0990
 Red. masses --      1.0307                 1.0996                 1.1061
 Frc consts  --      5.8015                 6.2527                 6.3929
 IR Inten    --     27.0840                 1.3421                 2.4791

                     88                     89                     90
                      A                      A                      A
 Frequencies --   3139.8491              3141.8107              3170.8438
 Red. masses --      1.1043                 1.1031                 1.1078
 Frc consts  --      6.4144                 6.4156                 6.5623
 IR Inten    --     26.7552                22.7427                10.7452

                     91                     92                     93
                      A                      A                      A
 Frequencies --   3206.0798              3207.5860              3211.1513
 Red. masses --      1.1067                 1.0892                 1.0920
 Frc consts  --      6.7023                 6.6025                 6.6343
 IR Inten    --      7.8535                 9.0436                 0.3965

                     94                     95                     96
                      A                      A                      A
 Frequencies --   3224.6679              3639.7817              3656.4086
 Red. masses --      1.0955                 1.0823                 1.0783
 Frc consts  --      6.7118                 8.4478                 8.4939
 IR Inten    --      4.6875               232.6904               113.3982

 - Thermochemistry -
 -------------------
 Temperature     0.001 Kelvin.  Pressure   1.00000 Atm.
 Atom     1 has atomic number  6 and mass  12.00000

 Molecular mass:   281.08341 amu.
 Principal axes and moments of inertia in atomic units:
                           1         2         3
     Eigenvalues --  2008.68178********************
           X            0.99989  -0.01433  -0.00458
           Y            0.01435   0.99988   0.00568
           Z            0.00450  -0.00574   0.99997
 This molecule is an asymmetric top.
 Rotational symmetry number  1.
 Warning -- assumption of classical behavior for rotation
           may cause significant error
 Rotational temperatures (Kelvin)      0.04312     0.00607     0.00569
 Rotational constants (GHZ):           0.89847     0.12649     0.11848
 Zero-point vibrational energy     709564.3 (Joules/Mol)
                                  169.58993 (Kcal/Mol)
 Vibrational temperatures:     34.74    44.32    75.15    99.06   109.79
          (Kelvin)            126.02   161.05   186.84   208.64   234.61
                              243.78   280.19   319.25   339.15   361.19
                              387.90   447.33   484.75   514.94   547.08
                              571.81   594.25   634.97   658.35   769.60
                              786.41   856.51   859.07   907.70  1013.21
                             1049.79  1074.07  1076.04  1090.24  1105.53
                             1122.35  1135.35  1203.41  1258.69  1262.66
                             1303.84  1333.51  1348.38  1415.87  1453.31
                             1509.58  1515.48  1537.32  1551.14  1556.25
                             1614.49  1635.97  1656.60  1713.29  1758.02
                             1771.62  1783.94  1811.04  1822.06  1830.13
                             1844.48  1908.62  1916.25  1983.00  2011.81
                             2037.95  2105.43  2114.41  2128.67  2154.77
                             2156.54  2159.60  2165.96  2174.42  2176.39
                             2192.80  2223.78  2358.98  2376.50  2461.22
                             2632.50  4401.49  4407.23  4422.98  4447.07
                             4469.85  4506.39  4517.54  4520.36  4562.14
                             4612.83  4615.00  4620.13  4639.58  5236.83
                             5260.76

 Zero-point correction=                           0.270259 (Hartree/Particle)
 Thermal correction to Energy=                    0.270259
 Thermal correction to Enthalpy=                  0.270259
 Thermal correction to Gibbs Free Energy=         0.270259
 Sum of electronic and zero-point Energies=          -1254.045318
 Sum of electronic and thermal Energies=             -1254.045318
 Sum of electronic and thermal Enthalpies=           -1254.045318
 Sum of electronic and thermal Free Energies=        -1254.045318

                     E (Thermal)             CV                S
                      KCal/Mol        Cal/Mol-Kelvin    Cal/Mol-Kelvin
 Total                  169.590              5.962            -22.965
 Electronic               0.000              0.000              0.000
 Translational            0.000              2.981            -19.825
 Rotational               0.000              2.981             -3.140
 Vibrational            169.590              0.000              0.000

 Optimization completed.
    -- Stationary point found.
 Normal termination of Gaussian 16 at Mon Oct 14 12:51:28 2019.
