 Gaussian 16, Revision A.03,
 Gaussian 16:  ES64L-G16RevA.03 25-Dec-2016

 -------------------------------------------------------------------
 #P opt freq m062x/6-311++g(d,p) geom=connectivity temperature=0.001
 -------------------------------------------------------------------

 ------------------
 ricobenzadole plus
 ------------------
 Symbolic Z-matrix:
 Charge =  1 Multiplicity = 1

 SCF Done:  E(RM062X) =  -1254.60805708     A.U. after   16 cycles
 SCF Done:  E(RM062X) =  -1254.64918212     A.U. after   14 cycles
 SCF Done:  E(RM062X) =  -1254.66936423     A.U. after   14 cycles
 SCF Done:  E(RM062X) =  -1254.67570386     A.U. after   15 cycles
 SCF Done:  E(RM062X) =  -1254.68106935     A.U. after   14 cycles
 SCF Done:  E(RM062X) =  -1254.68476702     A.U. after   15 cycles
 SCF Done:  E(RM062X) =  -1254.68536726     A.U. after   13 cycles
 SCF Done:  E(RM062X) =  -1254.68608843     A.U. after   13 cycles
 SCF Done:  E(RM062X) =  -1254.68720312     A.U. after   13 cycles
 SCF Done:  E(RM062X) =  -1254.68759220     A.U. after   14 cycles
 SCF Done:  E(RM062X) =  -1254.69437880     A.U. after   13 cycles
 SCF Done:  E(RM062X) =  -1254.69446341     A.U. after   11 cycles
 SCF Done:  E(RM062X) =  -1254.69447829     A.U. after   11 cycles
 SCF Done:  E(RM062X) =  -1254.69448666     A.U. after   11 cycles
 SCF Done:  E(RM062X) =  -1254.69448796     A.U. after   10 cycles
 SCF Done:  E(RM062X) =  -1254.69449119     A.U. after   10 cycles
 SCF Done:  E(RM062X) =  -1254.69449365     A.U. after   11 cycles
 SCF Done:  E(RM062X) =  -1254.69449425     A.U. after   10 cycles
 SCF Done:  E(RM062X) =  -1254.69449450     A.U. after    9 cycles
 Optimization completed.
    -- Stationary point found.
 Normal termination of Gaussian 16 at Mon Oct 14 13:33:17 2019.

 ----------------------------------------------------------------------
 #P Geom=AllCheck Guess=TCheck SCRF=Check GenChk RM062X/6-311++G(d,p) F
 req
 ----------------------------------------------------------------------

 Structure from the checkpoint file:  "14_p.chk"
 ------------------
 ricobenzadole plus
 ------------------
 Charge =  1 Multiplicity = 1

                         Standard orientation:
 ---------------------------------------------------------------------
 Center     Atomic      Atomic             Coordinates (Angstroms)
 Number     Number       Type             X           Y           Z
 ---------------------------------------------------------------------
      1          6           0       -4.845292    3.000628    0.115612
      2          6           0       -4.573818    0.517151    0.134648
      3          6           0       -4.035084    1.825539   -0.433595
      4         16           0       -3.697273   -0.900187   -0.574271
      5          6           0       -2.042299   -0.696850   -0.044905
      6          8           0       -4.328575   -2.016774    0.444150
      7          6           0       -1.741079   -0.555866    1.322340
      8          6           0       -0.429899   -0.359141    1.714054
      9          6           0        0.532022   -0.292199    0.706745
     10          6           0        0.225597   -0.430642   -0.670278
     11          6           0       -1.089406   -0.648176   -1.063007
     12          7           0        1.888234   -0.109967    0.741590
     13          6           0        2.315714   -0.145612   -0.561592
     14          7           0        1.363041   -0.333593   -1.434345
     15          7           0        3.633856    0.004025   -0.904956
     16          6           0        4.658757    0.200193    0.002468
     17          8           0        5.811785    0.303666   -0.632584
     18          8           0        4.496652    0.264124    1.197258
     19          6           0        6.964472    0.510022    0.204300
     20          1           0       -4.455866    3.939479   -0.277050
     21          1           0       -5.895628    2.925345   -0.171180
     22          1           0       -4.788541    3.041582    1.205086
     23          1           0       -5.620933    0.346823   -0.124371
     24          1           0       -4.449766    0.438607    1.217100
     25          1           0       -4.094350    1.811088   -1.525766
     26          1           0       -2.982173    1.934642   -0.161895
     27          1           0       -2.523629   -0.639979    2.066685
     28          1           0       -0.168898   -0.266400    2.760413
     29          1           0       -1.345856   -0.772044   -2.108787
     30          1           0        2.513524    0.025079    1.529457
     31          1           0        3.852233   -0.040247   -1.891746
     32          1           0        7.805272    0.568392   -0.479285
     33          1           0        6.853067    1.436864    0.764683
     34          1           0        7.077850   -0.327836    0.890275
     35          1           0       -4.292836   -2.900075    0.047380
 ---------------------------------------------------------------------

 SCF Done:  E(RM062X) =  -1254.69449450     A.U. after    1 cycles

 The electronic state is 1-A.
 Alpha  occ. eigenvalues --  -90.18457 -19.84061 -19.78012 -19.72502 -14.92720
 Alpha  occ. eigenvalues --  -14.91513 -14.85693 -10.82159 -10.78253 -10.73374
 Alpha  occ. eigenvalues --  -10.72727 -10.72398 -10.70685 -10.70132 -10.69682
 Alpha  occ. eigenvalues --  -10.69107 -10.68496 -10.68239 -10.64702  -8.54312
 Alpha  occ. eigenvalues --   -6.46466  -6.46154  -6.45882  -1.36590  -1.36568
 Alpha  occ. eigenvalues --   -1.28446  -1.26226  -1.17644  -1.12984  -1.11904
 Alpha  occ. eigenvalues --   -1.07842  -1.01889  -0.98902  -0.97009  -0.93362
 Alpha  occ. eigenvalues --   -0.90245  -0.85778  -0.85046  -0.83442  -0.81725
 Alpha  occ. eigenvalues --   -0.80246  -0.77271  -0.76522  -0.74505  -0.73565
 Alpha  occ. eigenvalues --   -0.71610  -0.70221  -0.69692  -0.68533  -0.67025
 Alpha  occ. eigenvalues --   -0.66368  -0.66332  -0.65320  -0.64938  -0.62865
 Alpha  occ. eigenvalues --   -0.61611  -0.60869  -0.60424  -0.59751  -0.58719
 Alpha  occ. eigenvalues --   -0.57753  -0.56615  -0.54721  -0.54212  -0.54050
 Alpha  occ. eigenvalues --   -0.53395  -0.53092  -0.51860  -0.49110  -0.49006
 Alpha  occ. eigenvalues --   -0.48793  -0.47941  -0.43108  -0.39813
 Alpha virt. eigenvalues --   -0.17379  -0.12965  -0.11498  -0.10246  -0.10013
 Alpha virt. eigenvalues --   -0.09329  -0.08533  -0.07569  -0.07065  -0.06952
 Alpha virt. eigenvalues --   -0.06417  -0.06012  -0.05633  -0.05571  -0.05212

 Mulliken charges:
               1
     1  C   -0.665242
     2  C   -0.487701
     3  C   -0.284347
     4  S    0.747557
     5  C   -0.216476
     6  O   -0.213502
     7  C    0.122075
     8  C   -0.297624
     9  C    0.064650
    10  C   -0.090656
    11  C   -0.503470
    12  N   -0.246780
    13  C    0.249709
    14  N   -0.047386
    15  N   -0.578720
    16  C    0.021905
    17  O   -0.058141
    18  O   -0.283705
    19  C   -0.208572
    20  H    0.198541
    21  H    0.173013
    22  H    0.166488
    23  H    0.291833
    24  H    0.232537
    25  H    0.195815
    26  H    0.206054
    27  H    0.273475
    28  H    0.239246
    29  H    0.280170
    30  H    0.400150
    31  H    0.376796
    32  H    0.204601
    33  H    0.203287
    34  H    0.203541
    35  H    0.330880
 Sum of Mulliken charges =   1.00000

 Dipole moment (field-independent basis, Debye):
    X=             -6.5092    Y=             -0.8526    Z=              0.1288  Tot=              6.5660
 Quadrupole moment (field-independent basis, Debye-Ang):
   XX=            -11.5525   YY=           -102.7386   ZZ=           -110.5931
   XY=              6.5815   XZ=              2.7400   YZ=              1.6191

  Exact polarizability: 301.719   8.926 135.435  -2.627   2.208 158.162
 Approx polarizability: 303.750  17.547 167.497  -4.106   4.813 235.443

                      1                      2                      3
                      A                      A                      A
 Frequencies --     21.6991                33.6350                49.5478
 Red. masses --      4.5547                 4.8101                 4.5234
 Frc consts  --      0.0013                 0.0032                 0.0065
 IR Inten    --      0.2006                 1.1684                 1.0297

                      4                      5                      6
                      A                      A                      A
 Frequencies --     74.1788                82.2420                88.3693
 Red. masses --      1.8711                 4.5386                 4.2547
 Frc consts  --      0.0061                 0.0181                 0.0196
 IR Inten    --      0.0885                 2.9561                 1.4171

                      7                      8                      9
                      A                      A                      A
 Frequencies --    110.0061               131.2827               137.8808
 Red. masses --      3.5397                 1.8459                 2.3294
 Frc consts  --      0.0252                 0.0187                 0.0261
 IR Inten    --      1.0905                 4.7332                 0.2422

                     10                     11                     12
                      A                      A                      A
 Frequencies --    159.7854               166.9126               198.6910
 Red. masses --      3.1062                 4.3893                 5.0001
 Frc consts  --      0.0467                 0.0720                 0.1163
 IR Inten    --      0.8431                 4.5529                 5.8219

                     13                     14                     15
                      A                      A                      A
 Frequencies --    218.8912               232.9227               250.3066
 Red. masses --      6.0971                 3.5173                 1.1870
 Frc consts  --      0.1721                 0.1124                 0.0438
 IR Inten    --      1.2375                 3.6269                 0.3220

                     16                     17                     18
                      A                      A                      A
 Frequencies --    264.2597               272.7175               311.5725
 Red. masses --      4.4360                 1.3287                 4.2159
 Frc consts  --      0.1825                 0.0582                 0.2411
 IR Inten    --     11.0050               164.6815                 5.0934

                     19                     20                     21
                      A                      A                      A
 Frequencies --    346.7925               359.6607               379.3899
 Red. masses --      3.4602                 5.3066                 5.9990
 Frc consts  --      0.2452                 0.4044                 0.5087
 IR Inten    --      5.1808                 2.4093                14.9883

                     22                     23                     24
                      A                      A                      A
 Frequencies --    393.2335               409.9962               439.8337
 Red. masses --      5.5651                 4.5003                 6.4642
 Frc consts  --      0.5070                 0.4457                 0.7368
 IR Inten    --      0.7071                10.7983                31.9996

                     25                     26                     27
                      A                      A                      A
 Frequencies --    445.2393               529.4888               564.4905
 Red. masses --      3.8304                 5.6834                 1.1035
 Frc consts  --      0.4474                 0.9388                 0.2072
 IR Inten    --      3.4506                22.6843               118.5979

                     28                     29                     30
                      A                      A                      A
 Frequencies --    595.2137               603.4651               672.2456
 Red. masses --      6.2443                 4.8247                 1.2364
 Frc consts  --      1.3034                 1.0352                 0.3292
 IR Inten    --      8.4322                 2.3525                68.9998

                     31                     32                     33
                      A                      A                      A
 Frequencies --    710.1499               736.8928               742.5280
 Red. masses --      6.4891                 4.9504                 4.5686
 Frc consts  --      1.9281                 1.5838                 1.4841
 IR Inten    --      4.4441                 0.3398                 1.9810

                     34                     35                     36
                      A                      A                      A
 Frequencies --    749.9806               752.0731               759.4432
 Red. masses --      4.6448                 1.1920                 4.9384
 Frc consts  --      1.5393                 0.3972                 1.6781
 IR Inten    --      6.7565                12.1919                 4.7109

                     37                     38                     39
                      A                      A                      A
 Frequencies --    785.0315               791.1077               814.1699
 Red. masses --      6.2694                 9.5069                 3.9699
 Frc consts  --      2.2764                 3.5056                 1.5505
 IR Inten    --     20.5109                37.2015                75.0078

                     40                     41                     42
                      A                      A                      A
 Frequencies --    822.4304               877.5471               880.2753
 Red. masses --      2.0637                 1.3943                 2.6427
 Frc consts  --      0.8224                 0.6326                 1.2065
 IR Inten    --     87.5935                13.9957                 7.2869

                     43                     44                     45
                      A                      A                      A
 Frequencies --    894.0194               924.4376               940.1544
 Red. masses --      1.3604                 1.8180                 5.7485
 Frc consts  --      0.6407                 0.9154                 2.9937
 IR Inten    --     14.0231                 4.7149                 2.2843

                     46                     47                     48
                      A                      A                      A
 Frequencies --    970.4260              1004.8113              1046.6085
 Red. masses --      1.3079                 5.5844                 7.3324
 Frc consts  --      0.7257                 3.3220                 4.7322
 IR Inten    --      1.6893                19.2790                 4.7093

                     49                     50                     51
                      A                      A                      A
 Frequencies --   1055.7701              1075.5452              1097.5117
 Red. masses --      2.8433                 2.2381                 1.2552
 Frc consts  --      1.8673                 1.5254                 0.8908
 IR Inten    --      1.6026                83.4744                22.4097

                     52                     53                     54
                      A                      A                      A
 Frequencies --   1116.2231              1124.7655              1163.9679
 Red. masses --      1.8361                 2.7766                 1.2860
 Frc consts  --      1.3479                 2.0696                 1.0265
 IR Inten    --      3.8592                 2.3003                 2.9396

                     55                     56                     57
                      A                      A                      A
 Frequencies --   1178.0714              1190.3778              1228.7295
 Red. masses --      1.2258                 1.2716                 1.5079
 Frc consts  --      1.0024                 1.0616                 1.3413
 IR Inten    --     82.8641                 1.0654                26.3437

                     58                     59                     60
                      A                      A                      A
 Frequencies --   1231.5272              1241.2323              1268.9681
 Red. masses --      1.5087                 1.3446                 1.7439
 Frc consts  --      1.3482                 1.2206                 1.6546
 IR Inten    --     14.3301                 1.6509                 9.5252

                     61                     62                     63
                      A                      A                      A
 Frequencies --   1277.3845              1286.4989              1295.0343
 Red. masses --      1.3418                 2.7367                 3.1512
 Frc consts  --      1.2900                 2.6687                 3.1137
 IR Inten    --     39.5656               345.1680               657.5828

                     64                     65                     66
                      A                      A                      A
 Frequencies --   1332.0680              1352.4864              1377.8980
 Red. masses --      1.0927                 5.6412                 1.4326
 Frc consts  --      1.1424                 6.0797                 1.6025
 IR Inten    --      1.3639               258.4617                 5.6864

                     67                     68                     69
                      A                      A                      A
 Frequencies --   1421.0623              1424.7037              1459.5528
 Red. masses --      2.7318                 1.2276                 2.1090
 Frc consts  --      3.2503                 1.4681                 2.6470
 IR Inten    --      7.7364                 2.1323               180.8653

                     70                     71                     72
                      A                      A                      A
 Frequencies --   1463.4737              1486.7341              1494.6299
 Red. masses --      1.2341                 1.9407                 2.9927
 Frc consts  --      1.5573                 2.5274                 3.9389
 IR Inten    --     69.9342               119.7432                 0.9937

                     73                     74                     75
                      A                      A                      A
 Frequencies --   1497.2303              1498.9325              1505.8564
 Red. masses --      1.1353                 1.0416                 1.0387
 Frc consts  --      1.4994                 1.3789                 1.3878
 IR Inten    --      4.8526                13.8959                11.9150

                     76                     77                     78
                      A                      A                      A
 Frequencies --   1507.7477              1511.5079              1518.0528
 Red. masses --      1.0718                 1.0864                 4.3923
 Frc consts  --      1.4355                 1.4624                 5.9637
 IR Inten    --     31.5584                 7.8437               101.5385

                     79                     80                     81
                      A                      A                      A
 Frequencies --   1535.8184              1626.9394              1642.4740
 Red. masses --      2.3893                 6.2712                 7.8174
 Frc consts  --      3.3204                 9.7802                12.4254
 IR Inten    --    263.8171               422.6879                61.2124

                     82                     83                     84
                      A                      A                      A
 Frequencies --   1712.3734              1838.8507              3068.2369
 Red. masses --      6.3788                10.0032                 1.0569
 Frc consts  --     11.0201                19.9288                 5.8621
 IR Inten    --    807.0889               307.6973                 1.2831

                     85                     86                     87
                      A                      A                      A
 Frequencies --   3075.0917              3092.1506              3097.4913
 Red. masses --      1.0396                 1.0571                 1.0304
 Frc consts  --      5.7920                 5.9551                 5.8248
 IR Inten    --     14.8204                 1.1757                16.2100

                     88                     89                     90
                      A                      A                      A
 Frequencies --   3114.0169              3148.4114              3159.2275
 Red. masses --      1.1047                 1.1047                 1.1090
 Frc consts  --      6.3115                 6.4520                 6.5215
 IR Inten    --      1.9061                12.3956                 0.5330

                     91                     92                     93
                      A                      A                      A
 Frequencies --   3162.2357              3182.4570              3217.6277
 Red. masses --      1.1024                 1.1086                 1.0898
 Frc consts  --      6.4951                 6.6156                 6.6474
 IR Inten    --      4.1917                 6.4489                 1.9718

                     94                     95                     96
                      A                      A                      A
 Frequencies --   3218.3919              3222.0298              3235.1743
 Red. masses --      1.1075                 1.0937                 1.0967
 Frc consts  --      6.7587                 6.6898                 6.7630
 IR Inten    --      3.0688                 3.6900                 1.4022

                     97                     98                     99
                      A                      A                      A
 Frequencies --   3587.2811              3640.3101              3809.5922
 Red. masses --      1.0832                 1.0787                 1.0677
 Frc consts  --      8.2125                 8.4222                 9.1297
 IR Inten    --    348.8089               147.4253               269.7726

 - Thermochemistry -
 -------------------
 Temperature     0.001 Kelvin.  Pressure   1.00000 Atm.
 Atom     1 has atomic number  6 and mass  12.00000

 Molecular mass:   282.09124 amu.
 Principal axes and moments of inertia in atomic units:
                           1         2         3
     Eigenvalues --  1894.52401********************
           X            0.99994  -0.01083  -0.00005
           Y            0.01083   0.99994  -0.00234
           Z            0.00008   0.00234   1.00000
 This molecule is an asymmetric top.
 Rotational symmetry number  1.
 Warning -- assumption of classical behavior for rotation
           may cause significant error
 Rotational temperatures (Kelvin)      0.04572     0.00581     0.00566
 Rotational constants (GHZ):           0.95261     0.12105     0.11785
 Zero-point vibrational energy     740582.7 (Joules/Mol)
                                  177.00352 (Kcal/Mol)
 Vibrational temperatures:     31.22    48.39    71.29   106.73   118.33
          (Kelvin)            127.14   158.27   188.89   198.38   229.90
                              240.15   285.87   314.94   335.12   360.14
                              380.21   392.38   448.28   498.96   517.47
                              545.86   565.78   589.89   632.82   640.60
                              761.82   812.18   856.38   868.25   967.21
                             1021.75  1060.22  1068.33  1079.05  1082.07
                             1092.67  1129.49  1138.23  1171.41  1183.29
                             1262.59  1266.52  1286.29  1330.06  1352.67
                             1396.23  1445.70  1505.84  1519.02  1547.47
                             1579.07  1606.00  1618.29  1674.69  1694.98
                             1712.69  1767.87  1771.89  1785.86  1825.76
                             1837.87  1850.98  1863.27  1916.55  1945.93
                             1982.49  2044.59  2049.83  2099.97  2105.61
                             2139.08  2150.44  2154.18  2156.63  2166.59
                             2169.31  2174.72  2184.14  2209.70  2340.80
                             2363.15  2463.72  2645.70  4414.51  4424.37
                             4448.91  4456.60  4480.38  4529.86  4545.42
                             4549.75  4578.85  4629.45  4630.55  4635.78
                             4654.69  5161.30  5237.59  5481.15

 Zero-point correction=                           0.282073 (Hartree/Particle)
 Thermal correction to Energy=                    0.282073
 Thermal correction to Enthalpy=                  0.282073
 Thermal correction to Gibbs Free Energy=         0.282073
 Sum of electronic and zero-point Energies=          -1254.412421
 Sum of electronic and thermal Energies=             -1254.412421
 Sum of electronic and thermal Enthalpies=           -1254.412421
 Sum of electronic and thermal Free Energies=        -1254.412421

                     E (Thermal)             CV                S
                      KCal/Mol        Cal/Mol-Kelvin    Cal/Mol-Kelvin
 Total                  177.004              5.962            -22.964
 Electronic               0.000              0.000              0.000
 Translational            0.000              2.981            -19.814
 Rotational               0.000              2.981             -3.150
 Vibrational            177.004              0.000              0.000

 Optimization completed.
    -- Stationary point found.
 Normal termination of Gaussian 16 at Mon Oct 14 13:48:19 2019.
