 Gaussian 16, Revision A.03,
 Gaussian 16:  ES64L-G16RevA.03 25-Dec-2016

 -------------------------------------------------------------------
 #p opt freq m062x/6-311++g(d,p) geom=connectivity temperature=0.001
 -------------------------------------------------------------------

 -------------
 ricobenzadole
 -------------
 Symbolic Z-matrix:
 Charge =  1 Multiplicity = 1

 SCF Done:  E(RM062X) =  -1254.61467734     A.U. after   19 cycles
 SCF Done:  E(RM062X) =  -1254.65462597     A.U. after   16 cycles
 SCF Done:  E(RM062X) =  -1254.67177891     A.U. after   15 cycles
 SCF Done:  E(RM062X) =  -1254.67383849     A.U. after   15 cycles
 SCF Done:  E(RM062X) =  -1254.67471651     A.U. after   14 cycles
 SCF Done:  E(RM062X) =  -1254.67506472     A.U. after   13 cycles
 SCF Done:  E(RM062X) =  -1254.67563735     A.U. after   14 cycles
 SCF Done:  E(RM062X) =  -1254.63342480     A.U. after   17 cycles
 SCF Done:  E(RM062X) =  -1254.67671314     A.U. after   14 cycles
 SCF Done:  E(RM062X) =  -1254.67402039     A.U. after   16 cycles
 SCF Done:  E(RM062X) =  -1254.67915566     A.U. after   14 cycles
 SCF Done:  E(RM062X) =  -1254.67972924     A.U. after   13 cycles
 SCF Done:  E(RM062X) =  -1254.67976553     A.U. after   13 cycles
 SCF Done:  E(RM062X) =  -1254.67980626     A.U. after   12 cycles
 SCF Done:  E(RM062X) =  -1254.67981461     A.U. after   11 cycles
 SCF Done:  E(RM062X) =  -1254.67981662     A.U. after   11 cycles
 SCF Done:  E(RM062X) =  -1254.67981745     A.U. after   10 cycles
 SCF Done:  E(RM062X) =  -1254.67981791     A.U. after   10 cycles
 SCF Done:  E(RM062X) =  -1254.67981801     A.U. after    9 cycles
 Optimization completed.
    -- Stationary point found.
 Normal termination of Gaussian 16 at Thu Jan  2 15:58:43 2020.

 ----------------------------------------------------------------------
 #P Geom=AllCheck Guess=TCheck SCRF=Check GenChk RM062X/6-311++G(d,p) F
 req
 ----------------------------------------------------------------------

 Structure from the checkpoint file:  "14_p_b.chk"
 -------------
 ricobenzadole
 -------------
 Charge =  1 Multiplicity = 1

                         Standard orientation:
 ---------------------------------------------------------------------
 Center     Atomic      Atomic             Coordinates (Angstroms)
 Number     Number       Type             X           Y           Z
 ---------------------------------------------------------------------
      1          6           0       -4.668140    2.928729    1.142934
      2          6           0       -4.457474    0.509555    0.494619
      3          6           0       -3.970711    1.925719    0.222977
      4         16           0       -3.909350   -0.728908   -0.734511
      5          6           0       -2.135277   -0.695020   -0.319177
      6          8           0       -4.398717   -2.048133   -0.214981
      7          6           0       -1.691701   -1.656376    0.596554
      8          6           0       -0.352528   -1.750291    0.940771
      9          6           0        0.509320   -0.855534    0.319844
     10          6           0        0.058647    0.086223   -0.604860
     11          6           0       -1.279172    0.189416   -0.958109
     12          7           0        1.896594   -0.689807    0.410061
     13          6           0        2.274343    0.289330   -0.409835
     14          7           0        1.197869    0.783409   -1.037414
     15          7           0        3.541437    0.730750   -0.591544
     16          6           0        4.640603    0.177011    0.093219
     17          8           0        5.734642    0.790348   -0.278508
     18          8           0        4.524838   -0.718515    0.884087
     19          6           0        6.958519    0.326375    0.342671
     20          1           0       -4.307005    3.941180    0.958927
     21          1           0       -5.747331    2.921367    0.979770
     22          1           0       -4.484435    2.689363    2.192400
     23          1           0       -5.546434    0.441752    0.424337
     24          1           0       -4.153395    0.126023    1.471920
     25          1           0       -4.167267    2.188990   -0.821758
     26          1           0       -2.889385    1.982371    0.376986
     27          1           0       -2.428058   -2.342673    1.004070
     28          1           0        0.003710   -2.491760    1.644308
     29          1           0       -1.634956    0.900226   -1.695438
     30          1           0        2.566017   -1.200288    0.980426
     31          1           0        3.726339    1.480954   -1.245439
     32          1           0        7.741023    0.944354   -0.084080
     33          1           0        6.891751    0.463603    1.420136
     34          1           0        7.110641   -0.723842    0.101586
     35          1           0        1.212416    1.530038   -1.718125
 ---------------------------------------------------------------------

 SCF Done:  E(RM062X) =  -1254.67981801     A.U. after    1 cycles

 The electronic state is 1-A.
 Alpha  occ. eigenvalues --  -90.10083 -19.83180 -19.78060 -19.67797 -14.99851
 Alpha  occ. eigenvalues --  -14.98897 -14.98834 -10.87845 -10.87667 -10.75738
 Alpha  occ. eigenvalues --  -10.75328 -10.72484 -10.70823 -10.70415 -10.70061
 Alpha  occ. eigenvalues --  -10.68567 -10.66504 -10.64586 -10.61887  -8.45729
 Alpha  occ. eigenvalues --   -6.37794  -6.37695  -6.37360  -1.42174  -1.36348
 Alpha  occ. eigenvalues --   -1.32129  -1.24338  -1.23368  -1.21294  -1.11978
 Alpha  occ. eigenvalues --   -1.02991  -1.01412  -1.00185  -0.97895  -0.93670
 Alpha  occ. eigenvalues --   -0.92661  -0.89775  -0.88648  -0.84421  -0.83098
 Alpha  occ. eigenvalues --   -0.81120  -0.78965  -0.78223  -0.77185  -0.76361
 Alpha  occ. eigenvalues --   -0.76089  -0.72567  -0.72479  -0.71539  -0.68270
 Alpha  occ. eigenvalues --   -0.66698  -0.66571  -0.65361  -0.64622  -0.64094
 Alpha  occ. eigenvalues --   -0.62233  -0.59738  -0.59075  -0.58498  -0.58177
 Alpha  occ. eigenvalues --   -0.58043  -0.57007  -0.55774  -0.54328  -0.54175
 Alpha  occ. eigenvalues --   -0.53874  -0.53356  -0.52203  -0.50758  -0.49932
 Alpha  occ. eigenvalues --   -0.45216  -0.44277  -0.43377  -0.39267
 Alpha virt. eigenvalues --   -0.15912  -0.14170  -0.11788  -0.11486  -0.10744
 Alpha virt. eigenvalues --   -0.10418  -0.08948  -0.08287  -0.08073  -0.07326
 Alpha virt. eigenvalues --   -0.06859  -0.06464  -0.06282  -0.05893  -0.05212

 Mulliken charges:
               1
     1  C   -0.666826
     2  C   -0.851697
     3  C   -0.136797
     4  S    1.113172
     5  C   -0.648772
     6  O   -0.401571
     7  C    0.251857
     8  C   -0.232419
     9  C   -0.074315
    10  C    0.190783
    11  C   -0.688739
    12  N   -0.236610
    13  C    0.633570
    14  N   -0.209012
    15  N   -0.541975
    16  C    0.019362
    17  O   -0.055494
    18  O   -0.236851
    19  C   -0.203327
    20  H    0.171864
    21  H    0.172348
    22  H    0.168708
    23  H    0.269611
    24  H    0.235921
    25  H    0.175852
    26  H    0.170657
    27  H    0.316952
    28  H    0.230950
    29  H    0.253148
    30  H    0.429671
    31  H    0.367958
    32  H    0.214317
    33  H    0.213404
    34  H    0.214129
    35  H    0.370170
 Sum of Mulliken charges =   1.00000

 Dipole moment (field-independent basis, Debye):
    X=             11.2759    Y=              5.8755    Z=             -1.5211  Tot=             12.8055
 Quadrupole moment (field-independent basis, Debye-Ang):
   XX=            -44.9065   YY=           -111.5374   ZZ=           -108.4091
   XY=            -10.6835   XZ=             -6.3175   YZ=            -10.0626

  Exact polarizability: 280.759   8.825 162.142   0.617 -17.867 133.613
 Approx polarizability: 278.093  18.830 216.532   2.533 -39.572 188.622

                      1                      2                      3
                      A                      A                      A
 Frequencies --     26.6370                34.1372                55.0419
 Red. masses --      4.7157                 4.5568                 4.2809
 Frc consts  --      0.0020                 0.0031                 0.0076
 IR Inten    --      0.3474                 0.5032                 0.0105

                      4                      5                      6
                      A                      A                      A
 Frequencies --     69.8866                78.2696                88.2298
 Red. masses --      1.7341                 3.9832                 5.1914
 Frc consts  --      0.0050                 0.0144                 0.0238
 IR Inten    --      0.5456                 2.4629                 1.1229

                      7                      8                      9
                      A                      A                      A
 Frequencies --    112.3368               124.4963               138.7785
 Red. masses --      2.1320                 1.7276                 3.1613
 Frc consts  --      0.0159                 0.0158                 0.0359
 IR Inten    --      1.4320                 2.0452                 3.9487

                     10                     11                     12
                      A                      A                      A
 Frequencies --    162.6183               170.2726               200.7778
 Red. masses --      4.3873                 5.4752                 4.6211
 Frc consts  --      0.0684                 0.0935                 0.1098
 IR Inten    --      0.8611                 3.5632                 8.9022

                     13                     14                     15
                      A                      A                      A
 Frequencies --    220.8059               236.5101               251.6059
 Red. masses --      6.2147                 5.6643                 1.1248
 Frc consts  --      0.1785                 0.1867                 0.0420
 IR Inten    --      2.8558                 2.2995                 0.4088

                     16                     17                     18
                      A                      A                      A
 Frequencies --    262.7933               299.9861               332.3456
 Red. masses --      4.7572                 4.6847                 6.2890
 Frc consts  --      0.1936                 0.2484                 0.4093
 IR Inten    --     25.8943                 0.8426                 7.4537

                     19                     20                     21
                      A                      A                      A
 Frequencies --    351.9082               372.7760               392.5753
 Red. masses --      5.4919                 5.6912                 6.2929
 Frc consts  --      0.4007                 0.4660                 0.5714
 IR Inten    --      9.7384                 8.1865                 6.8859

                     22                     23                     24
                      A                      A                      A
 Frequencies --    401.1981               428.6799               451.5086
 Red. masses --      5.0460                 3.1730                 4.6059
 Frc consts  --      0.4785                 0.3435                 0.5532
 IR Inten    --      3.0784                 6.8468                17.0153

                     25                     26                     27
                      A                      A                      A
 Frequencies --    452.9992               522.3782               543.2230
 Red. masses --      1.2061                 5.0774                 1.1781
 Frc consts  --      0.1458                 0.8163                 0.2048
 IR Inten    --      7.3881                 5.2338               169.9400

                     28                     29                     30
                      A                      A                      A
 Frequencies --    592.3478               615.9681               700.8429
 Red. masses --      6.3576                 4.4191                 6.8618
 Frc consts  --      1.3143                 0.9879                 1.9858
 IR Inten    --      4.9305                 8.3511                11.9623

                     31                     32                     33
                      A                      A                      A
 Frequencies --    711.6321               716.7914               741.6557
 Red. masses --      1.4678                 3.0965                 5.3754
 Frc consts  --      0.4379                 0.9374                 1.7421
 IR Inten    --     63.9439                37.6495                14.6657

                     34                     35                     36
                      A                      A                      A
 Frequencies --    744.7414               748.4851               752.1247
 Red. masses --      3.6143                 1.2228                 4.8200
 Frc consts  --      1.1811                 0.4036                 1.6065
 IR Inten    --      0.7071                13.4230                 6.0274

                     37                     38                     39
                      A                      A                      A
 Frequencies --    781.3481               786.2381               852.1867
 Red. masses --      6.0284                 9.5925                 1.3578
 Frc consts  --      2.1684                 3.4937                 0.5810
 IR Inten    --     19.5799                43.2423                42.4490

                     40                     41                     42
                      A                      A                      A
 Frequencies --    875.7608               880.8125               893.5255
 Red. masses --      1.2571                 3.5322                 1.3808
 Frc consts  --      0.5681                 1.6146                 0.6495
 IR Inten    --      5.7974                 6.8367                 9.3674

                     43                     44                     45
                      A                      A                      A
 Frequencies --    926.8367               929.6301               993.0888
 Red. masses --      2.0610                 3.8260                 5.8540
 Frc consts  --      1.0431                 1.9481                 3.4015
 IR Inten    --      2.7910                 5.0829                62.8265

                     46                     47                     48
                      A                      A                      A
 Frequencies --   1011.2129              1053.3068              1056.7316
 Red. masses --      1.3033                 5.6014                 2.7704
 Frc consts  --      0.7852                 3.6615                 1.8227
 IR Inten    --      1.1019                 1.0736                47.7927

                     49                     50                     51
                      A                      A                      A
 Frequencies --   1074.2614              1079.5113              1086.8213
 Red. masses --      3.6309                 2.0450                 1.6816
 Frc consts  --      2.4688                 1.4041                 1.1703
 IR Inten    --    114.6793                12.4071                16.2102

                     52                     53                     54
                      A                      A                      A
 Frequencies --   1121.3872              1126.2480              1157.7250
 Red. masses --      2.0930                 2.8185                 1.3960
 Frc consts  --      1.5507                 2.1064                 1.1024
 IR Inten    --      4.4127                 6.5780                 2.0560

                     55                     56                     57
                      A                      A                      A
 Frequencies --   1188.8211              1213.9621              1220.8408
 Red. masses --      1.2680                 2.3602                 1.4969
 Frc consts  --      1.0559                 2.0493                 1.3145
 IR Inten    --      1.2346                 9.1320                97.4211

                     58                     59                     60
                      A                      A                      A
 Frequencies --   1233.0608              1241.4695              1265.1703
 Red. masses --      1.5253                 1.3904                 1.4653
 Frc consts  --      1.3664                 1.2626                 1.3819
 IR Inten    --     10.9285                 1.9276                31.8540

                     61                     62                     63
                      A                      A                      A
 Frequencies --   1271.6911              1285.4613              1324.2253
 Red. masses --      1.2997                 2.7245                 1.1171
 Frc consts  --      1.2384                 2.6525                 1.1542
 IR Inten    --     32.3075               391.2741                 6.2630

                     64                     65                     66
                      A                      A                      A
 Frequencies --   1333.1860              1354.4482              1372.9946
 Red. masses --      4.8505                 1.9702                 1.4884
 Frc consts  --      5.0795                 2.1296                 1.6532
 IR Inten    --    262.3151               179.6601                 8.6832

                     67                     68                     69
                      A                      A                      A
 Frequencies --   1384.1959              1421.4242              1451.8224
 Red. masses --      3.2927                 1.2357                 2.3477
 Frc consts  --      3.7171                 1.4710                 2.9155
 IR Inten    --     39.4809                 1.8675               307.9568

                     70                     71                     72
                      A                      A                      A
 Frequencies --   1463.2840              1488.5469              1495.7045
 Red. masses --      1.1004                 2.1099                 1.6321
 Frc consts  --      1.3882                 2.7545                 2.1513
 IR Inten    --      8.7242                70.3081                84.4269

                     73                     74                     75
                      A                      A                      A
 Frequencies --   1497.7782              1498.6012              1505.2367
 Red. masses --      1.0493                 1.0620                 1.1042
 Frc consts  --      1.3869                 1.4052                 1.4741
 IR Inten    --     19.4096                 5.5441                 8.2976

                     76                     77                     78
                      A                      A                      A
 Frequencies --   1505.7442              1512.7177              1536.9741
 Red. masses --      1.0376                 1.0851                 3.1243
 Frc consts  --      1.3861                 1.4630                 4.3485
 IR Inten    --     11.4213                 6.6141               104.1061

                     79                     80                     81
                      A                      A                      A
 Frequencies --   1611.4469              1672.6314              1690.9171
 Red. masses --      3.9058                 9.0123                 6.8444
 Frc consts  --      5.9758                14.8555                11.5301
 IR Inten    --    222.9993                69.9129                13.6085

                     82                     83                     84
                      A                      A                      A
 Frequencies --   1717.8213              1877.1951              3054.7881
 Red. masses --      5.3869                10.1313                 1.0600
 Frc consts  --      9.3658                21.0346                 5.8281
 IR Inten    --    827.1242               356.5118                11.6505

                     85                     86                     87
                      A                      A                      A
 Frequencies --   3070.3924              3077.8058              3096.9856
 Red. masses --      1.0358                 1.0578                 1.1027
 Frc consts  --      5.7535                 5.9040                 6.2314
 IR Inten    --     17.8462                 2.7387                12.2631

                     88                     89                     90
                      A                      A                      A
 Frequencies --   3104.0693              3137.8746              3145.7413
 Red. masses --      1.0297                 1.1077                 1.1039
 Frc consts  --      5.8455                 6.4259                 6.4363
 IR Inten    --      8.1294                 0.1405                19.5154

                     91                     92                     93
                      A                      A                      A
 Frequencies --   3151.6652              3195.1952              3198.6505
 Red. masses --      1.1030                 1.1097                 1.0914
 Frc consts  --      6.4549                 6.6749                 6.5789
 IR Inten    --     12.4518                 2.6784                26.5397

                     94                     95                     96
                      A                      A                      A
 Frequencies --   3212.5286              3228.9055              3235.1998
 Red. masses --      1.0937                 1.1086                 1.0954
 Frc consts  --      6.6502                 6.8097                 6.7550
 IR Inten    --      1.6753                 0.6946                 3.4329

                     97                     98                     99
                      A                      A                      A
 Frequencies --   3561.4677              3627.5339              3656.1661
 Red. masses --      1.0833                 1.0795                 1.0830
 Frc consts  --      8.0957                 8.3694                 8.5296
 IR Inten    --    318.7237               143.3077               172.9763

 - Thermochemistry -
 -------------------
 Temperature     0.001 Kelvin.  Pressure   1.00000 Atm.
 Atom     1 has atomic number  6 and mass  12.00000

 Molecular mass:   282.09124 amu.
 Principal axes and moments of inertia in atomic units:
                           1         2         3
     Eigenvalues --  1985.65123********************
           X            0.99989  -0.01411  -0.00512
           Y            0.01409   0.99990  -0.00246
           Z            0.00515   0.00239   0.99998
 This molecule is an asymmetric top.
 Rotational symmetry number  1.
 Warning -- assumption of classical behavior for rotation
           may cause significant error
 Rotational temperatures (Kelvin)      0.04362     0.00596     0.00556
 Rotational constants (GHZ):           0.90889     0.12410     0.11587
 Zero-point vibrational energy     742799.3 (Joules/Mol)
                                  177.53329 (Kcal/Mol)
 Vibrational temperatures:     38.32    49.12    79.19   100.55   112.61
          (Kelvin)            126.94   161.63   179.12   199.67   233.97
                              244.98   288.87   317.69   340.29   362.00
                              378.10   431.61   478.17   506.32   536.34
                              564.83   577.23   616.77   649.62   651.76
                              751.59   781.58   852.26   886.24  1008.36
                             1023.88  1031.30  1067.08  1071.52  1076.90
                             1082.14  1124.19  1131.22  1226.11  1260.02
                             1267.29  1285.58  1333.51  1337.53  1428.83
                             1454.91  1515.47  1520.40  1545.62  1553.18
                             1563.69  1613.43  1620.42  1665.71  1710.45
                             1746.62  1756.52  1774.10  1786.20  1820.30
                             1829.68  1849.49  1905.26  1918.16  1948.75
                             1975.43  1991.55  2045.11  2088.85  2105.34
                             2141.69  2151.99  2154.97  2156.15  2165.70
                             2166.43  2176.46  2211.36  2318.51  2406.54
                             2432.85  2471.56  2700.87  4395.16  4417.61
                             4428.28  4455.87  4466.06  4514.70  4526.02
                             4534.54  4597.17  4602.14  4622.11  4645.67
                             4654.73  5124.16  5219.21  5260.41

 Zero-point correction=                           0.282917 (Hartree/Particle)
 Thermal correction to Energy=                    0.282917
 Thermal correction to Enthalpy=                  0.282917
 Thermal correction to Gibbs Free Energy=         0.282917
 Sum of electronic and zero-point Energies=          -1254.396901
 Sum of electronic and thermal Energies=             -1254.396901
 Sum of electronic and thermal Enthalpies=           -1254.396901
 Sum of electronic and thermal Free Energies=        -1254.396901

                     E (Thermal)             CV                S
                      KCal/Mol        Cal/Mol-Kelvin    Cal/Mol-Kelvin
 Total                  177.533              5.962            -22.925
 Electronic               0.000              0.000              0.000
 Translational            0.000              2.981            -19.814
 Rotational               0.000              2.981             -3.111
 Vibrational            177.533              0.000              0.000

                           ! Non-Optimized Parameters !
 Normal termination of Gaussian 16 at Thu Jan  2 16:15:11 2020.
