 Gaussian 16, Revision A.03,
 Gaussian 16:  ES64L-G16RevA.03 25-Dec-2016

 -------------------------------------------------------------------
 #p opt freq m062x/6-311++g(d,p) geom=connectivity temperature=0.001
 -------------------------------------------------------------------

 --------------------------------
 pyridone_1_acetic_acid no iodine
 --------------------------------
 Symbolic Z-matrix:
 Charge =  0 Multiplicity = 1

 SCF Done:  E(RM062X) =  -551.286815258     A.U. after   17 cycles
 SCF Done:  E(RM062X) =  -551.312448813     A.U. after   15 cycles
 SCF Done:  E(RM062X) =  -551.318584788     A.U. after   14 cycles
 SCF Done:  E(RM062X) =  -551.319008835     A.U. after   13 cycles
 SCF Done:  E(RM062X) =  -551.319258269     A.U. after   13 cycles
 SCF Done:  E(RM062X) =  -551.319605357     A.U. after   12 cycles
 SCF Done:  E(RM062X) =  -551.320267839     A.U. after   15 cycles
 SCF Done:  E(RM062X) =  -551.320392776     A.U. after   13 cycles
 SCF Done:  E(RM062X) =  -551.320423118     A.U. after   12 cycles
 SCF Done:  E(RM062X) =  -551.320457314     A.U. after   13 cycles
 SCF Done:  E(RM062X) =  -551.321792144     A.U. after   14 cycles
 SCF Done:  E(RM062X) =  -551.321931338     A.U. after   15 cycles
 SCF Done:  E(RM062X) =  -551.322017559     A.U. after   13 cycles
 SCF Done:  E(RM062X) =  -551.322081020     A.U. after   13 cycles
 SCF Done:  E(RM062X) =  -551.322154267     A.U. after   13 cycles
 SCF Done:  E(RM062X) =  -551.322180459     A.U. after   13 cycles
 SCF Done:  E(RM062X) =  -551.322184612     A.U. after   12 cycles
 SCF Done:  E(RM062X) =  -551.322185307     A.U. after   11 cycles
 SCF Done:  E(RM062X) =  -551.322185372     A.U. after   10 cycles
 Optimization completed.
    -- Stationary point found.
 Normal termination of Gaussian 16 at Mon Oct 14 09:21:22 2019.

 ----------------------------------------------------------------------
 #P Geom=AllCheck Guess=TCheck SCRF=Check GenChk RM062X/6-311++G(d,p) F
 req
 ----------------------------------------------------------------------

 Structure from the checkpoint file:  "06_no_iodine.chk"
 --------------------------------
 pyridone_1_acetic_acid no iodine
 --------------------------------
 Charge =  0 Multiplicity = 1

                         Standard orientation:
 ---------------------------------------------------------------------
 Center     Atomic      Atomic             Coordinates (Angstroms)
 Number     Number       Type             X           Y           Z
 ---------------------------------------------------------------------
      1          6           0       -1.771298    1.224449   -0.050082
      2          6           0       -0.487556    1.183088   -0.461524
      3          7           0        0.171167    0.001008   -0.696220
      4          6           0       -0.487549   -1.181703   -0.464752
      5          6           0       -1.771305   -1.224147   -0.053443
      6          6           0       -2.535488   -0.000187    0.195026
      7          8           0       -3.698422   -0.000708    0.569093
      8          6           0        1.585607    0.001541   -0.990847
      9          6           0        2.506062   -0.000285    0.224259
     10          8           0        3.698952    0.000702    0.127034
     11          8           0        1.840450   -0.003228    1.382400
     12          1           0        1.842687    0.878595   -1.587398
     13          1           0        1.842877   -0.873795   -1.589877
     14          1           0        0.096277    2.078837   -0.638227
     15          1           0        0.096254   -2.076983   -0.643911
     16          1           0        2.488415   -0.004271    2.101044
     17          1           0       -2.261715   -2.175545    0.102932
     18          1           0       -2.261646    2.175443    0.108930
 ---------------------------------------------------------------------

 SCF Done:  E(RM062X) =  -551.322185372     A.U. after    1 cycles

 The electronic state is 1-A.
 Alpha  occ. eigenvalues --  -19.70735 -19.65151 -19.57749 -14.83591 -10.71576
 Alpha  occ. eigenvalues --  -10.63568 -10.61390 -10.61250 -10.61249 -10.54960
 Alpha  occ. eigenvalues --  -10.54959  -1.27941  -1.18371  -1.13947  -1.12851
 Alpha  occ. eigenvalues --   -0.93493  -0.89717  -0.85333  -0.75217  -0.75161
 Alpha  occ. eigenvalues --   -0.70947  -0.65590  -0.61827  -0.60986  -0.58910
 Alpha  occ. eigenvalues --   -0.57884  -0.56213  -0.53273  -0.53123  -0.51321
 Alpha  occ. eigenvalues --   -0.50779  -0.49722  -0.46715  -0.45339  -0.44497
 Alpha  occ. eigenvalues --   -0.43155  -0.39362  -0.35169  -0.30876  -0.28282
 Alpha virt. eigenvalues --   -0.02043  -0.00862  -0.00818   0.00181   0.00832
 Alpha virt. eigenvalues --    0.01305   0.01999   0.02970   0.03221   0.04236
 Alpha virt. eigenvalues --    0.05614   0.05707   0.06391   0.06579   0.07982

 Mulliken charges:
               1
     1  C    0.372741
     2  C   -0.427385
     3  N    0.291505
     4  C   -0.427310
     5  C    0.372723
     6  C   -0.783494
     7  O   -0.344059
     8  C   -0.406542
     9  C    0.136167
    10  O   -0.259433
    11  O   -0.187363
    12  H    0.234608
    13  H    0.234651
    14  H    0.171255
    15  H    0.171260
    16  H    0.354482
    17  H    0.248090
    18  H    0.248105
 Sum of Mulliken charges =  -0.00000

 Dipole moment (field-independent basis, Debye):
    X=              5.1305    Y=              0.0003    Z=             -1.3301  Tot=              5.3001
 Quadrupole moment (field-independent basis, Debye-Ang):
   XX=            -95.3906   YY=            -55.5219   ZZ=            -59.7196
   XY=             -0.0164   XZ=              5.8141   YZ=              0.0042

  Exact polarizability: 137.838   0.028  83.153 -15.515   0.011  70.505
 Approx polarizability: 165.861   0.046 102.873 -26.078   0.011  89.863

                      1                      2                      3
                      A                      A                      A
 Frequencies --     22.0179                53.1828                53.7088
 Red. masses --      9.8032                 3.9075                 9.1496
 Frc consts  --      0.0028                 0.0065                 0.0156
 IR Inten    --      6.2652                 1.0558                 4.5725

                      4                      5                      6
                      A                      A                      A
 Frequencies --    142.7924               298.4717               347.1484
 Red. masses --      6.4787                 6.5345                 2.5179
 Frc consts  --      0.0778                 0.3430                 0.1788
 IR Inten    --      2.6841                 1.7490                 1.0205

                      7                      8                      9
                      A                      A                      A
 Frequencies --    361.6031               417.2010               468.4130
 Red. masses --     10.0260                 3.1708                 2.6975
 Frc consts  --      0.7724                 0.3252                 0.3487
 IR Inten    --      1.3983                 0.1542                14.8942

                     10                     11                     12
                      A                      A                      A
 Frequencies --    474.2694               520.6149               549.1729
 Red. masses --      3.9781                 1.7645                 6.5419
 Frc consts  --      0.5272                 0.2818                 1.1624
 IR Inten    --      9.0465                18.1577                25.3010

                     13                     14                     15
                      A                      A                      A
 Frequencies --    618.0160               653.9897               684.8361
 Red. masses --      3.9391                 5.4732                 1.5683
 Frc consts  --      0.8864                 1.3792                 0.4334
 IR Inten    --     79.2373                 8.0831               102.4064

                     16                     17                     18
                      A                      A                      A
 Frequencies --    725.5439               803.1520               826.0678
 Red. masses --      3.0659                 1.2612                 4.4239
 Frc consts  --      0.9509                 0.4793                 1.7787
 IR Inten    --      3.7045                 0.0516                17.7442

                     19                     20                     21
                      A                      A                      A
 Frequencies --    846.1161               857.3180               878.2553
 Red. masses --      4.8988                 2.4616                 3.4962
 Frc consts  --      2.0663                 1.0660                 1.5889
 IR Inten    --     15.6041                56.9973                11.9294

                     22                     23                     24
                      A                      A                      A
 Frequencies --    971.8530               981.1399               986.1785
 Red. masses --      1.2404                 1.3092                 2.3643
 Frc consts  --      0.6903                 0.7425                 1.3547
 IR Inten    --      0.7401                 0.4395                 6.9846

                     25                     26                     27
                      A                      A                      A
 Frequencies --   1021.6379              1115.8599              1207.1855
 Red. masses --      2.5669                 1.5760                 1.6206
 Frc consts  --      1.5785                 1.1562                 1.3914
 IR Inten    --      0.1828                 4.0139                90.1411

                     28                     29                     30
                      A                      A                      A
 Frequencies --   1220.1298              1245.1244              1270.1398
 Red. masses --      1.4006                 1.3985                 1.4623
 Frc consts  --      1.2285                 1.2774                 1.3899
 IR Inten    --    134.2955                 0.6612                12.9509

                     31                     32                     33
                      A                      A                      A
 Frequencies --   1274.4509              1368.9756              1398.1646
 Red. masses --      2.6210                 1.5390                 2.5567
 Frc consts  --      2.5082                 1.6994                 2.9447
 IR Inten    --    125.2871                54.3234                83.2991

                     34                     35                     36
                      A                      A                      A
 Frequencies --   1406.2130              1454.8857              1477.6551
 Red. masses --      1.5524                 1.8524                 1.2684
 Frc consts  --      1.8087                 2.3102                 1.6317
 IR Inten    --      9.2348                30.9707                 5.1644

                     37                     38                     39
                      A                      A                      A
 Frequencies --   1521.6156              1626.0603              1713.8816
 Red. masses --      5.4165                 6.2050                 5.9901
 Frc consts  --      7.3888                 9.6665                10.3668
 IR Inten    --     97.5311                 4.9869                58.1180

                     40                     41                     42
                      A                      A                      A
 Frequencies --   1765.6767              1886.3250              3102.3482
 Red. masses --      9.7750                10.8395                 1.0611
 Frc consts  --     17.9551                22.7244                 6.0173
 IR Inten    --    818.7517               435.3472                12.6439

                     43                     44                     45
                      A                      A                      A
 Frequencies --   3149.0471              3214.0111              3216.4081
 Red. masses --      1.1045                 1.0903                 1.0913
 Frc consts  --      6.4533                 6.6357                 6.6519
 IR Inten    --      0.0011                 2.2059                 1.2922

                     46                     47                     48
                      A                      A                      A
 Frequencies --   3245.0425              3246.1569              3826.6286
 Red. masses --      1.0957                 1.0968                 1.0649
 Frc consts  --      6.7979                 6.8094                 9.1874
 IR Inten    --      0.3682                 0.1667               125.6019

 - Thermochemistry -
 -------------------
 Temperature     0.001 Kelvin.  Pressure   1.00000 Atm.
 Atom     1 has atomic number  6 and mass  12.00000

 Molecular mass:   153.04259 amu.
 Principal axes and moments of inertia in atomic units:
                           1         2         3
     Eigenvalues --   573.225023037.188403101.88054
           X            1.00000  -0.00000  -0.00175
           Y            0.00000   1.00000   0.00050
           Z            0.00175  -0.00050   1.00000
 This molecule is an asymmetric top.
 Rotational symmetry number  1.
 Warning -- assumption of classical behavior for rotation
           may cause significant error
 Rotational temperatures (Kelvin)      0.15110     0.02852     0.02792
 Rotational constants (GHZ):           3.14840     0.59421     0.58182
 Zero-point vibrational energy     361958.2 (Joules/Mol)
                                   86.51009 (Kcal/Mol)
 Vibrational temperatures:     31.68    76.52    77.28   205.45   429.43
          (Kelvin)            499.47   520.27   600.26   673.94   682.37
                              749.05   790.14   889.19   940.95   985.33
                             1043.90  1155.56  1188.53  1217.37  1233.49
                             1263.61  1398.28  1411.64  1418.89  1469.91
                             1605.47  1736.87  1755.49  1791.46  1827.45
                             1833.65  1969.65  2011.65  2023.23  2093.26
                             2126.02  2189.27  2339.54  2465.89  2540.42
                             2714.00  4463.59  4530.78  4624.25  4627.69
                             4668.89  4670.50  5505.67

 Zero-point correction=                           0.137863 (Hartree/Particle)
 Thermal correction to Energy=                    0.137863
 Thermal correction to Enthalpy=                  0.137863
 Thermal correction to Gibbs Free Energy=         0.137863
 Sum of electronic and zero-point Energies=           -551.184323
 Sum of electronic and thermal Energies=              -551.184323
 Sum of electronic and thermal Enthalpies=            -551.184323
 Sum of electronic and thermal Free Energies=         -551.184323

                     E (Thermal)             CV                S
                      KCal/Mol        Cal/Mol-Kelvin    Cal/Mol-Kelvin
 Total                   86.510              5.962            -29.142
 Electronic               0.000              0.000              0.000
 Translational            0.000              2.981            -21.637
 Rotational               0.000              2.981             -7.505
 Vibrational             86.510              0.000              0.000

                           ! Non-Optimized Parameters !
 Normal termination of Gaussian 16 at Mon Oct 14 09:23:31 2019.
