 Gaussian 16, Revision A.03,
 Gaussian 16:  ES64L-G16RevA.03 25-Dec-2016

 -------------------------------------------------------------------
 #p opt freq m062x/6-311++g(d,p) geom=connectivity temperature=0.001
 -------------------------------------------------------------------

 -------------------------------------
 pyridone_1_acetic_acid no iodine plus
 -------------------------------------
 Symbolic Z-matrix:
 Charge =  1 Multiplicity = 1

 SCF Done:  E(RM062X) =  -551.655854108     A.U. after   14 cycles
 SCF Done:  E(RM062X) =  -551.684246536     A.U. after   14 cycles
 SCF Done:  E(RM062X) =  -551.692825087     A.U. after   13 cycles
 SCF Done:  E(RM062X) =  -551.695080547     A.U. after   13 cycles
 SCF Done:  E(RM062X) =  -551.697087235     A.U. after   13 cycles
 SCF Done:  E(RM062X) =  -551.698242805     A.U. after   14 cycles
 SCF Done:  E(RM062X) =  -551.699257685     A.U. after   14 cycles
 SCF Done:  E(RM062X) =  -551.700440531     A.U. after   13 cycles
 SCF Done:  E(RM062X) =  -551.702466082     A.U. after   15 cycles
 SCF Done:  E(RM062X) =  -551.702895175     A.U. after   13 cycles
 SCF Done:  E(RM062X) =  -551.702958702     A.U. after   13 cycles
 SCF Done:  E(RM062X) =  -551.702989370     A.U. after   12 cycles
 SCF Done:  E(RM062X) =  -551.703012171     A.U. after   11 cycles
 SCF Done:  E(RM062X) =  -551.703019550     A.U. after   10 cycles
 SCF Done:  E(RM062X) =  -551.703020984     A.U. after   10 cycles
 SCF Done:  E(RM062X) =  -551.703021265     A.U. after    9 cycles
 SCF Done:  E(RM062X) =  -551.703021303     A.U. after    8 cycles
 Optimization completed.
    -- Stationary point found.
 Normal termination of Gaussian 16 at Mon Oct 14 09:17:50 2019.

 ----------------------------------------------------------------------
 #P Geom=AllCheck Guess=TCheck SCRF=Check GenChk RM062X/6-311++G(d,p) F
 req
 ----------------------------------------------------------------------

 Structure from the checkpoint file:  "06_no_iodine_p.chk"
 -------------------------------------
 pyridone_1_acetic_acid no iodine plus
 -------------------------------------
 Charge =  1 Multiplicity = 1

                         Standard orientation:
 ---------------------------------------------------------------------
 Center     Atomic      Atomic             Coordinates (Angstroms)
 Number     Number       Type             X           Y           Z
 ---------------------------------------------------------------------
      1          6           0       -1.641967    1.110832   -0.461685
      2          6           0       -0.332338    0.828183   -0.728549
      3          7           0        0.189842   -0.397187   -0.476289
      4          6           0       -0.575808   -1.362536    0.073988
      5          6           0       -1.895885   -1.145343    0.370488
      6          6           0       -2.453893    0.114088    0.102102
      7          8           0       -3.710408    0.429938    0.346730
      8          6           0        1.616929   -0.626144   -0.723887
      9          6           0        2.455067    0.200059    0.250420
     10          8           0        1.999119    1.027722    0.980152
     11          8           0        3.731316   -0.134488    0.132677
     12          1           0        1.863926   -0.338589   -1.747817
     13          1           0        1.843435   -1.685094   -0.610004
     14          1           0        0.344075    1.560538   -1.148453
     15          1           0       -0.094249   -2.312680    0.263989
     16          1           0        4.269229    0.406329    0.731654
     17          1           0       -2.481191   -1.945150    0.806396
     18          1           0       -2.051453    2.089535   -0.671524
     19          1           0       -4.215519   -0.294782    0.736045
 ---------------------------------------------------------------------

 SCF Done:  E(RM062X) =  -551.703021303     A.U. after    1 cycles

 The electronic state is 1-A.
 Alpha  occ. eigenvalues --  -19.84400 -19.82429 -19.77704 -15.02739 -10.84261
 Alpha  occ. eigenvalues --  -10.82201 -10.79572 -10.78935 -10.77612 -10.74253
 Alpha  occ. eigenvalues --  -10.73477  -1.40144  -1.39055  -1.32026  -1.30464
 Alpha  occ. eigenvalues --   -1.12136  -1.07844  -1.02859  -0.94876  -0.92371
 Alpha  occ. eigenvalues --   -0.87763  -0.84073  -0.79470  -0.77319  -0.76725
 Alpha  occ. eigenvalues --   -0.73316  -0.72773  -0.72302  -0.70591  -0.69847
 Alpha  occ. eigenvalues --   -0.67313  -0.66205  -0.65587  -0.63569  -0.62043
 Alpha  occ. eigenvalues --   -0.60822  -0.55454  -0.52891  -0.51644  -0.49978
 Alpha virt. eigenvalues --   -0.19538  -0.17359  -0.12857  -0.11870  -0.11331
 Alpha virt. eigenvalues --   -0.10026  -0.09564  -0.09000  -0.07964  -0.07526
 Alpha virt. eigenvalues --   -0.06874  -0.05939  -0.04965  -0.04344  -0.04270

 Mulliken charges:
               1
     1  C    0.720869
     2  C   -0.644557
     3  N    0.390881
     4  C   -0.368995
     5  C    0.549926
     6  C   -1.128187
     7  O   -0.144480
     8  C   -0.406558
     9  C    0.134849
    10  O   -0.224946
    11  O   -0.147565
    12  H    0.304325
    13  H    0.250140
    14  H    0.230503
    15  H    0.220280
    16  H    0.339349
    17  H    0.285112
    18  H    0.332054
    19  H    0.307002
 Sum of Mulliken charges =   1.00000

 Dipole moment (field-independent basis, Debye):
    X=             -1.6324    Y=             -2.9995    Z=             -1.1343  Tot=              3.5984
 Quadrupole moment (field-independent basis, Debye-Ang):
   XX=            -24.7753   YY=            -50.8474   ZZ=            -59.4014
   XY=              5.7399   XZ=             -4.5553   YZ=             -5.7874

  Exact polarizability: 124.135  -4.827  84.027 -10.184  -3.625  61.774
 Approx polarizability: 141.477 -10.036 113.731 -16.714  -4.770  81.782

                      1                      2                      3
                      A                      A                      A
 Frequencies --     43.0236                54.2650                82.9843
 Red. masses --      5.9599                 6.7843                 5.4988
 Frc consts  --      0.0065                 0.0118                 0.0223
 IR Inten    --      1.6325                 0.5624                 0.9898

                      4                      5                      6
                      A                      A                      A
 Frequencies --    182.2453               328.0312               337.0317
 Red. masses --      6.2132                 6.8665                 2.8151
 Frc consts  --      0.1216                 0.4353                 0.1884
 IR Inten    --      2.7320                 2.0623                 2.1845

                      7                      8                      9
                      A                      A                      A
 Frequencies --    355.7401               407.9943               452.0765
 Red. masses --      6.5926                 2.6831                 3.1054
 Frc consts  --      0.4916                 0.2631                 0.3739
 IR Inten    --      5.0421                 8.4745                 9.2881

                     10                     11                     12
                      A                      A                      A
 Frequencies --    475.9471               514.2043               525.8248
 Red. masses --      1.1527                 2.2882                 2.0922
 Frc consts  --      0.1538                 0.3565                 0.3408
 IR Inten    --    128.3846                28.9670                21.6220

                     13                     14                     15
                      A                      A                      A
 Frequencies --    547.1492               652.1223               661.4551
 Red. masses --      4.2980                 2.2832                 2.3443
 Frc consts  --      0.7581                 0.5721                 0.6043
 IR Inten    --     37.3123                85.7936                62.0376

                     16                     17                     18
                      A                      A                      A
 Frequencies --    679.8183               727.5924               830.8011
 Red. masses --      5.2704                 4.4507                 3.1317
 Frc consts  --      1.4351                 1.3882                 1.2736
 IR Inten    --     14.7593                 5.0413                22.5955

                     19                     20                     21
                      A                      A                      A
 Frequencies --    844.0765               863.4197               895.1213
 Red. masses --      1.4683                 1.6844                 3.7018
 Frc consts  --      0.6163                 0.7398                 1.7476
 IR Inten    --     11.3766                27.3619                32.3317

                     22                     23                     24
                      A                      A                      A
 Frequencies --    903.6064               978.5257               995.1924
 Red. masses --      3.9742                 1.3374                 1.3801
 Frc consts  --      1.9119                 0.7545                 0.8054
 IR Inten    --      5.2656                 0.9996                 0.5091

                     25                     26                     27
                      A                      A                      A
 Frequencies --   1000.4423              1059.5835              1146.6658
 Red. masses --      2.1993                 2.2843                 1.5230
 Frc consts  --      1.2969                 1.5110                 1.1798
 IR Inten    --      4.0225                 2.9461                53.3083

                     28                     29                     30
                      A                      A                      A
 Frequencies --   1187.9650              1204.7724              1236.6139
 Red. masses --      1.2327                 2.0911                 1.3547
 Frc consts  --      1.0250                 1.7883                 1.2206
 IR Inten    --    210.8306               223.6760                 5.4411

                     31                     32                     33
                      A                      A                      A
 Frequencies --   1236.9112              1259.4765              1322.5043
 Red. masses --      1.2092                 2.4273                 1.5352
 Frc consts  --      1.0900                 2.2685                 1.5820
 IR Inten    --     90.0223                23.9258                41.6204

                     34                     35                     36
                      A                      A                      A
 Frequencies --   1373.3281              1390.7047              1400.7424
 Red. masses --      1.6332                 2.1760                 2.8391
 Frc consts  --      1.8148                 2.4796                 3.2820
 IR Inten    --     47.5862                26.6722                96.9427

                     37                     38                     39
                      A                      A                      A
 Frequencies --   1436.3890              1481.4617              1547.1018
 Red. masses --      2.4577                 1.1650                 3.1436
 Frc consts  --      2.9876                 1.5065                 4.4331
 IR Inten    --    123.2031                29.3491                32.2238

                     40                     41                     42
                      A                      A                      A
 Frequencies --   1586.1871              1642.7581              1721.7107
 Red. masses --      3.3273                 6.4414                 5.5659
 Frc consts  --      4.9323                10.2419                 9.7209
 IR Inten    --    174.0790                53.3950               287.4586

                     43                     44                     45
                      A                      A                      A
 Frequencies --   1900.8641              3111.0971              3175.2091
 Red. masses --     11.3488                 1.0641                 1.1037
 Frc consts  --     24.1604                 6.0684                 6.5563
 IR Inten    --    313.8134                 4.0980                 2.2662

                     46                     47                     48
                      A                      A                      A
 Frequencies --   3230.0537              3245.2594              3248.7369
 Red. masses --      1.0928                 1.0920                 1.0982
 Frc consts  --      6.7176                 6.7763                 6.8288
 IR Inten    --      3.5459                 4.3638                16.4396

                     49                     50                     51
                      A                      A                      A
 Frequencies --   3256.0408              3798.2829              3850.2763
 Red. masses --      1.1004                 1.0652                 1.0670
 Frc consts  --      6.8736                 9.0541                 9.3195
 IR Inten    --     14.5325               209.7380               229.4796

 - Thermochemistry -
 -------------------
 Temperature     0.001 Kelvin.  Pressure   1.00000 Atm.
 Atom     1 has atomic number  6 and mass  12.00000

 Molecular mass:   154.05042 amu.
 Principal axes and moments of inertia in atomic units:
                           1         2         3
     Eigenvalues --   548.317553082.644973307.14636
           X            0.99998   0.00032  -0.00696
           Y           -0.00072   0.99834  -0.05765
           Z            0.00692   0.05765   0.99831
 This molecule is an asymmetric top.
 Rotational symmetry number  1.
 Warning -- assumption of classical behavior for rotation
           may cause significant error
 Rotational temperatures (Kelvin)      0.15796     0.02810     0.02619
 Rotational constants (GHZ):           3.29142     0.58545     0.54571
 Zero-point vibrational energy     397096.7 (Joules/Mol)
                                   94.90839 (Kcal/Mol)
 Vibrational temperatures:     61.90    78.08   119.40   262.21   471.96
          (Kelvin)            484.91   511.83   587.01   650.44   684.78
                              739.83   756.54   787.23   938.26   951.69
                              978.11  1046.84  1195.34  1214.44  1242.27
                             1287.88  1300.09  1407.88  1431.86  1439.41
                             1524.50  1649.80  1709.22  1733.40  1779.21
                             1779.64  1812.11  1902.79  1975.91  2000.91
                             2015.36  2066.64  2131.49  2225.93  2282.17
                             2363.56  2477.16  2734.92  4476.17  4568.42
                             4647.33  4669.20  4674.21  4684.72  5464.88
                             5539.69

 Zero-point correction=                           0.151246 (Hartree/Particle)
 Thermal correction to Energy=                    0.151246
 Thermal correction to Enthalpy=                  0.151246
 Thermal correction to Gibbs Free Energy=         0.151246
 Sum of electronic and zero-point Energies=           -551.551775
 Sum of electronic and thermal Energies=              -551.551775
 Sum of electronic and thermal Enthalpies=            -551.551775
 Sum of electronic and thermal Free Energies=         -551.551775

                     E (Thermal)             CV                S
                      KCal/Mol        Cal/Mol-Kelvin    Cal/Mol-Kelvin
 Total                   94.908              5.962            -29.088
 Electronic               0.000              0.000              0.000
 Translational            0.000              2.981            -21.617
 Rotational               0.000              2.981             -7.471
 Vibrational             94.908              0.000              0.000

 Optimization completed.
    -- Stationary point found.
 Normal termination of Gaussian 16 at Mon Oct 14 09:20:06 2019.
