 Gaussian 16, Revision A.03,
 Gaussian 16:  ES64L-G16RevA.03 25-Dec-2016

 -------------------------------------------------------------------
 #P opt freq m062x/6-311++g(d,p) geom=connectivity temperature=0.001
 -------------------------------------------------------------------

 -------------------
 Title Card Required
 -------------------
 Symbolic Z-matrix:
 Charge =  1 Multiplicity = 1

 SCF Done:  E(RM062X) =  -289.258932506     A.U. after   12 cycles
 SCF Done:  E(RM062X) =  -289.270086744     A.U. after   11 cycles
 SCF Done:  E(RM062X) =  -289.272189322     A.U. after   11 cycles
 SCF Done:  E(RM062X) =  -289.272529071     A.U. after   10 cycles
 SCF Done:  E(RM062X) =  -289.272806336     A.U. after   10 cycles
 SCF Done:  E(RM062X) =  -289.273119927     A.U. after   11 cycles
 SCF Done:  E(RM062X) =  -289.273487432     A.U. after   10 cycles
 SCF Done:  E(RM062X) =  -289.273715314     A.U. after   11 cycles
 SCF Done:  E(RM062X) =  -289.273722059     A.U. after    9 cycles
 SCF Done:  E(RM062X) =  -289.273722009     A.U. after    9 cycles
 SCF Done:  E(RM062X) =  -289.273724746     A.U. after    9 cycles
 SCF Done:  E(RM062X) =  -289.273725279     A.U. after    8 cycles
 SCF Done:  E(RM062X) =  -289.273725356     A.U. after    7 cycles
 Optimization completed.
    -- Stationary point found.
 Normal termination of Gaussian 16 at Sun Oct 13 21:38:55 2019.

 ----------------------------------------------------------------------
 #P Geom=AllCheck Guess=TCheck SCRF=Check GenChk RM062X/6-311++G(d,p) F
 req
 ----------------------------------------------------------------------

 Structure from the checkpoint file:  "1_p.chk"
 -------------------
 Title Card Required
 -------------------
 Charge =  1 Multiplicity = 1

                         Standard orientation:
 ---------------------------------------------------------------------
 Center     Atomic      Atomic             Coordinates (Angstroms)
 Number     Number       Type             X           Y           Z
 ---------------------------------------------------------------------
      1          6           0        2.493616   -0.014458    0.305977
      2          6           0        1.265726   -0.684720   -0.275237
      3          7           0        0.000001    0.005915    0.162841
      4          8           0        0.000116    1.356008   -0.199904
      5          6           0       -1.265774   -0.684611   -0.275324
      6          6           0       -2.493680   -0.014430    0.305996
      7          1           0        3.375172   -0.563087   -0.026014
      8          1           0        2.586614    1.018431   -0.025562
      9          1           0        2.479723   -0.039587    1.397777
     10          1           0        1.248292   -0.669074   -1.367833
     11          1           0        1.162123   -1.718730    0.058026
     12          1           0        0.000118    1.382119   -1.170329
     13          1           0       -1.248334   -0.668813   -1.367920
     14          1           0       -1.162198   -1.718674    0.057781
     15          1           0       -3.375233   -0.563039   -0.026038
     16          1           0       -2.479782   -0.039690    1.397794
     17          1           0       -2.586724    1.018492   -0.025416
     18          1           0       -0.000032    0.061491    1.188606
 ---------------------------------------------------------------------

 SCF Done:  E(RM062X) =  -289.273725356     A.U. after    1 cycles

 The electronic state is 1-A.
 Alpha  occ. eigenvalues --  -19.88513 -15.11109 -10.78149 -10.78148 -10.70160
 Alpha  occ. eigenvalues --  -10.70159  -1.46135  -1.22607  -1.07789  -1.02149
 Alpha  occ. eigenvalues --   -0.94683  -0.90181  -0.84900  -0.79825  -0.79020
 Alpha  occ. eigenvalues --   -0.71596  -0.70316  -0.68694  -0.65458  -0.62245
 Alpha  occ. eigenvalues --   -0.61932  -0.61676  -0.60460  -0.59900  -0.59292
 Alpha virt. eigenvalues --   -0.15312  -0.13912  -0.11611  -0.10872  -0.10382
 Alpha virt. eigenvalues --   -0.08937  -0.08081  -0.07699  -0.07620  -0.05920
 Alpha virt. eigenvalues --   -0.05162  -0.04868  -0.04740  -0.04461  -0.03589

 Mulliken charges:
               1
     1  C   -0.464708
     2  C   -0.284218
     3  N   -0.448280
     4  O    0.089040
     5  C   -0.284237
     6  C   -0.464698
     7  H    0.216355
     8  H    0.201698
     9  H    0.177195
    10  H    0.244508
    11  H    0.218352
    12  H    0.311779
    13  H    0.244501
    14  H    0.218348
    15  H    0.216357
    16  H    0.177192
    17  H    0.201709
    18  H    0.429108
 Sum of Mulliken charges =   1.00000

 Dipole moment (field-independent basis, Debye):
    X=             -0.0002    Y=             -1.7196    Z=             -0.7762  Tot=              1.8867
 Quadrupole moment (field-independent basis, Debye-Ang):
   XX=            -23.8624   YY=            -34.8040   ZZ=            -30.9702
   XY=             -0.0001   XZ=             -0.0002   YZ=             -2.2729

  Exact polarizability:  67.136   0.000  54.522  -0.000  -0.369  51.396
 Approx polarizability:  65.574   0.001  67.168  -0.000  -1.158  64.854

                      1                      2                      3
                      A                      A                      A
 Frequencies --     99.9240               108.6166               206.5021
 Red. masses --      2.6569                 1.5142                 2.2203
 Frc consts  --      0.0156                 0.0105                 0.0558
 IR Inten    --      0.3917                 0.0202                 0.7801

                      4                      5                      6
                      A                      A                      A
 Frequencies --    222.9434               251.4606               299.9058
 Red. masses --      1.2068                 1.1770                 1.2077
 Frc consts  --      0.0353                 0.0438                 0.0640
 IR Inten    --      0.0604                 0.1480               160.6902

                      7                      8                      9
                      A                      A                      A
 Frequencies --    334.2747               405.6876               490.1165
 Red. masses --      2.6224                 3.2409                 2.2506
 Frc consts  --      0.1726                 0.3143                 0.3185
 IR Inten    --      4.2280                 0.3644                 4.8260

                     10                     11                     12
                      A                      A                      A
 Frequencies --    521.5494               795.7913               797.6700
 Red. masses --      2.8061                 1.7172                 1.1495
 Frc consts  --      0.4497                 0.6407                 0.4309
 IR Inten    --     25.2689                 0.7027                 0.0809

                     13                     14                     15
                      A                      A                      A
 Frequencies --    850.3721               943.7030              1007.5485
 Red. masses --      1.3867                 2.3740                 2.1161
 Frc consts  --      0.5908                 1.2457                 1.2657
 IR Inten    --     13.3703                 0.3983                19.7457

                     16                     17                     18
                      A                      A                      A
 Frequencies --   1021.2398              1073.8149              1089.2501
 Red. masses --      1.9875                 1.7845                 3.8922
 Frc consts  --      1.2213                 1.2124                 2.7208
 IR Inten    --     20.3095                15.7762                 3.4227

                     19                     20                     21
                      A                      A                      A
 Frequencies --   1166.3021              1182.6487              1190.5076
 Red. masses --      1.8686                 1.7727                 2.2777
 Frc consts  --      1.4976                 1.4608                 1.9020
 IR Inten    --      2.2918                19.3828                 7.2268

                     22                     23                     24
                      A                      A                      A
 Frequencies --   1287.1967              1297.9579              1341.6701
 Red. masses --      1.1830                 1.1320                 1.2013
 Frc consts  --      1.1549                 1.1236                 1.2741
 IR Inten    --      4.5995                29.7315                 1.1494

                     25                     26                     27
                      A                      A                      A
 Frequencies --   1409.2748              1420.3672              1431.5089
 Red. masses --      1.2598                 1.2648                 1.2130
 Frc consts  --      1.4741                 1.5034                 1.4645
 IR Inten    --      3.6137                52.9698                 9.5480

                     28                     29                     30
                      A                      A                      A
 Frequencies --   1432.7331              1442.7925              1485.5229
 Red. masses --      1.2922                 1.3064                 1.0805
 Frc consts  --      1.5628                 1.6022                 1.4049
 IR Inten    --     42.9937                 3.8663                 7.1717

                     31                     32                     33
                      A                      A                      A
 Frequencies --   1494.2694              1498.5166              1499.0668
 Red. masses --      1.0429                 1.0424                 1.0490
 Frc consts  --      1.3719                 1.3792                 1.3889
 IR Inten    --     21.8981                 2.7737                 8.2948

                     34                     35                     36
                      A                      A                      A
 Frequencies --   1505.4243              1510.2244              1554.1927
 Red. masses --      1.0659                 1.0832                 1.1526
 Frc consts  --      1.4232                 1.4556                 1.6403
 IR Inten    --      1.7087                24.9896                11.5129

                     37                     38                     39
                      A                      A                      A
 Frequencies --   3080.6622              3081.0846              3090.7310
 Red. masses --      1.0413                 1.0400                 1.0576
 Frc consts  --      5.8223                 5.8170                 5.9522
 IR Inten    --      2.2835                 1.6990                 4.3580

                     40                     41                     42
                      A                      A                      A
 Frequencies --   3097.2285              3143.4055              3150.4358
 Red. masses --      1.0602                 1.1073                 1.1049
 Frc consts  --      5.9920                 6.4465                 6.4611
 IR Inten    --      2.4929                 0.0022                 0.2900

                     43                     44                     45
                      A                      A                      A
 Frequencies --   3160.9504              3162.4801              3181.0720
 Red. masses --      1.1027                 1.1039                 1.1042
 Frc consts  --      6.4914                 6.5048                 6.5832
 IR Inten    --      0.0847                 2.1143                 0.8197

                     46                     47                     48
                      A                      A                      A
 Frequencies --   3181.9265              3429.8726              3780.5645
 Red. masses --      1.1040                 1.0789                 1.0682
 Frc consts  --      6.5857                 7.4777                 8.9952
 IR Inten    --      0.9202                59.3093               105.2766

 - Thermochemistry -
 -------------------
 Temperature     0.001 Kelvin.  Pressure   1.00000 Atm.
 Atom     1 has atomic number  6 and mass  12.00000

 Molecular mass:    90.09189 amu.
 Principal axes and moments of inertia in atomic units:
                           1         2         3
     Eigenvalues --   241.81924 921.319371051.72554
           X            1.00000  -0.00000  -0.00000
           Y            0.00000   1.00000  -0.00138
           Z            0.00000   0.00138   1.00000
 This molecule is an asymmetric top.
 Rotational symmetry number  1.
 Rotational temperatures (Kelvin)      0.35818     0.09401     0.08235
 Rotational constants (GHZ):           7.46318     1.95887     1.71598
 Zero-point vibrational energy     443880.1 (Joules/Mol)
                                  106.08989 (Kcal/Mol)
 Vibrational temperatures:    143.77   156.28   297.11   320.77   361.80
          (Kelvin)            431.50   480.95   583.69   705.17   750.39
                             1144.97  1147.67  1223.50  1357.78  1449.64
                             1469.34  1544.98  1567.19  1678.05  1701.57
                             1712.87  1851.99  1867.47  1930.36  2027.63
                             2043.59  2059.62  2061.38  2075.86  2137.34
                             2149.92  2156.03  2156.82  2165.97  2172.88
                             2236.14  4432.39  4432.99  4446.87  4456.22
                             4522.66  4532.77  4547.90  4550.10  4576.85
                             4578.08  4934.82  5439.39

 Zero-point correction=                           0.169065 (Hartree/Particle)
 Thermal correction to Energy=                    0.169065
 Thermal correction to Enthalpy=                  0.169065
 Thermal correction to Gibbs Free Energy=         0.169065
 Sum of electronic and zero-point Energies=           -289.104660
 Sum of electronic and thermal Energies=              -289.104660
 Sum of electronic and thermal Enthalpies=            -289.104660
 Sum of electronic and thermal Free Energies=         -289.104660

                     E (Thermal)             CV                S
                      KCal/Mol        Cal/Mol-Kelvin    Cal/Mol-Kelvin
 Total                  106.090              5.962            -33.839
 Electronic               0.000              0.000              0.000
 Translational            0.000              2.981            -23.217
 Rotational               0.000              2.981            -10.622
 Vibrational            106.090              0.000              0.000

 Optimization completed.
    -- Stationary point found.
 Normal termination of Gaussian 16 at Sun Oct 13 21:40:08 2019.
