 Gaussian 16, Revision A.03,
 Gaussian 16:  ES64L-G16RevA.03 25-Dec-2016

 -------------------------------------------------------------------
 #p opt freq m062x/6-311++g(d,p) geom=connectivity temperature=0.001
 -------------------------------------------------------------------

 -------------------
 Title Card Required
 -------------------
 Symbolic Z-matrix:
 Charge =  1 Multiplicity = 1

 SCF Done:  E(RM062X) =  -289.191093638     A.U. after   13 cycles
 SCF Done:  E(RM062X) =  -289.208135346     A.U. after   11 cycles
 SCF Done:  E(RM062X) =  -289.214156939     A.U. after   11 cycles
 SCF Done:  E(RM062X) =  -289.215664979     A.U. after   11 cycles
 SCF Done:  E(RM062X) =  -289.216661715     A.U. after   11 cycles
 SCF Done:  E(RM062X) =  -289.218090854     A.U. after   12 cycles
 SCF Done:  E(RM062X) =  -289.218792991     A.U. after   13 cycles
 SCF Done:  E(RM062X) =  -289.219473779     A.U. after   10 cycles
 SCF Done:  E(RM062X) =  -289.219675583     A.U. after   10 cycles
 SCF Done:  E(RM062X) =  -289.219726004     A.U. after    9 cycles
 SCF Done:  E(RM062X) =  -289.219802124     A.U. after   11 cycles
 SCF Done:  E(RM062X) =  -289.219998786     A.U. after   11 cycles
 SCF Done:  E(RM062X) =  -289.219495459     A.U. after   13 cycles
 SCF Done:  E(RM062X) =  -289.220189176     A.U. after   10 cycles
 SCF Done:  E(RM062X) =  -289.220281874     A.U. after   10 cycles
 SCF Done:  E(RM062X) =  -289.220320362     A.U. after   10 cycles
 SCF Done:  E(RM062X) =  -289.220334129     A.U. after    9 cycles
 SCF Done:  E(RM062X) =  -289.220342206     A.U. after    9 cycles
 SCF Done:  E(RM062X) =  -289.220342609     A.U. after    8 cycles
 Optimization completed.
    -- Stationary point found.
 Normal termination of Gaussian 16 at Mon Dec 30 16:59:39 2019.

 ----------------------------------------------------------------------
 #P Geom=AllCheck Guess=TCheck SCRF=Check GenChk RM062X/6-311++G(d,p) F
 req
 ----------------------------------------------------------------------

 Structure from the checkpoint file:  "1_p_b.chk"
 -------------------
 Title Card Required
 -------------------
 Charge =  1 Multiplicity = 1

                         Standard orientation:
 ---------------------------------------------------------------------
 Center     Atomic      Atomic             Coordinates (Angstroms)
 Number     Number       Type             X           Y           Z
 ---------------------------------------------------------------------
      1          6           0       -2.472543   -0.067346   -0.299722
      2          6           0       -1.215630   -0.719930    0.250085
      3          7           0        0.013888   -0.114451   -0.279917
      4          8           0        0.024272    1.336424    0.232048
      5          6           0        1.254288   -0.687559    0.263958
      6          6           0        2.497375   -0.023218   -0.295976
      7          1           0       -3.343018   -0.652926   -0.004220
      8          1           0       -2.632773    0.941747    0.090789
      9          1           0       -2.440380   -0.029479   -1.389399
     10          1           0       -1.195879   -0.747450    1.350047
     11          1           0       -1.144845   -1.753633   -0.098902
     12          1           0       -0.410198    1.463849    1.100345
     13          1           0        1.232382   -0.691707    1.361745
     14          1           0        1.193440   -1.728249   -0.068960
     15          1           0        3.377413   -0.574414    0.035405
     16          1           0        2.477332   -0.031135   -1.386062
     17          1           0        2.599361    1.004257    0.053669
     18          1           0       -0.385165    1.897231   -0.451501
 ---------------------------------------------------------------------

 SCF Done:  E(RM062X) =  -289.220342609     A.U. after    1 cycles

 The electronic state is 1-A.
 Alpha  occ. eigenvalues --  -19.97902 -15.03455 -10.75979 -10.74846 -10.69942
 Alpha  occ. eigenvalues --  -10.67797  -1.49597  -1.22280  -1.05419  -0.98816
 Alpha  occ. eigenvalues --   -0.94868  -0.90255  -0.87822  -0.80543  -0.77586
 Alpha  occ. eigenvalues --   -0.71645  -0.70342  -0.67229  -0.65370  -0.61730
 Alpha  occ. eigenvalues --   -0.60402  -0.59494  -0.58752  -0.57574  -0.53378
 Alpha virt. eigenvalues --   -0.19203  -0.14811  -0.12963  -0.11276  -0.10621
 Alpha virt. eigenvalues --   -0.09008  -0.08520  -0.07846  -0.07116  -0.06704
 Alpha virt. eigenvalues --   -0.05727  -0.04673  -0.04113  -0.04043  -0.03691

 Mulliken charges:
               1
     1  C   -0.550973
     2  C   -0.296538
     3  N   -0.089501
     4  O   -0.058662
     5  C   -0.270059
     6  C   -0.566783
     7  H    0.213412
     8  H    0.157272
     9  H    0.229195
    10  H    0.233678
    11  H    0.220371
    12  H    0.359781
    13  H    0.215943
    14  H    0.224488
    15  H    0.197191
    16  H    0.212434
    17  H    0.185278
    18  H    0.383474
 Sum of Mulliken charges =   1.00000

 Dipole moment (field-independent basis, Debye):
    X=             -1.6059    Y=              2.2939    Z=              1.5836  Tot=              3.2169
 Quadrupole moment (field-independent basis, Debye-Ang):
   XX=            -26.2186   YY=            -25.6343   ZZ=            -34.8038
   XY=             -2.5155   XZ=             -0.3683   YZ=              0.8240

  Exact polarizability:  69.587  -0.801  59.059  -0.212  -0.046  52.264
 Approx polarizability:  68.097  -0.713  72.939  -0.325   1.113  65.589

                      1                      2                      3
                      A                      A                      A
 Frequencies --    111.8306               124.7403               197.9524
 Red. masses --      2.5016                 1.5272                 1.9060
 Frc consts  --      0.0184                 0.0140                 0.0440
 IR Inten    --      1.6049                 4.0377                 4.5765

                      4                      5                      6
                      A                      A                      A
 Frequencies --    219.2571               233.7506               266.2327
 Red. masses --      1.1694                 1.2082                 1.2023
 Frc consts  --      0.0331                 0.0389                 0.0502
 IR Inten    --     41.8480                 1.2001                 2.8259

                      7                      8                      9
                      A                      A                      A
 Frequencies --    319.5710               415.5542               439.2323
 Red. masses --      2.7750                 2.8543                 2.3595
 Frc consts  --      0.1670                 0.2904                 0.2682
 IR Inten    --      7.4877                 2.8590                 2.4414

                     10                     11                     12
                      A                      A                      A
 Frequencies --    507.1276               568.4398               763.3688
 Red. masses --      2.4357                 5.4469                 1.2245
 Frc consts  --      0.3691                 1.0370                 0.4204
 IR Inten    --     14.1875               114.0731               218.6684

                     13                     14                     15
                      A                      A                      A
 Frequencies --    794.5386               824.1030               851.9039
 Red. masses --      1.2317                 1.1996                 2.0200
 Frc consts  --      0.4581                 0.4800                 0.8637
 IR Inten    --     37.3355                 9.8013                 7.2414

                     16                     17                     18
                      A                      A                      A
 Frequencies --    962.7213              1016.8982              1037.1893
 Red. masses --      2.4571                 1.2206                 1.6747
 Frc consts  --      1.3418                 0.7436                 1.0615
 IR Inten    --      4.9029                 3.1291                10.2086

                     19                     20                     21
                      A                      A                      A
 Frequencies --   1072.2127              1101.7307              1151.2208
 Red. masses --      2.2264                 1.9361                 2.1269
 Frc consts  --      1.5081                 1.3846                 1.6608
 IR Inten    --      2.4634                 0.2957                 4.4449

                     22                     23                     24
                      A                      A                      A
 Frequencies --   1198.5873              1202.5077              1291.7742
 Red. masses --      2.0436                 1.9674                 1.1506
 Frc consts  --      1.7297                 1.6761                 1.1312
 IR Inten    --      3.0534                 3.9943                 1.1440

                     25                     26                     27
                      A                      A                      A
 Frequencies --   1341.6253              1377.2940              1407.2112
 Red. masses --      1.1360                 1.4377                 1.2644
 Frc consts  --      1.2047                 1.6069                 1.4752
 IR Inten    --      5.3436                10.6823                 3.4423

                     28                     29                     30
                      A                      A                      A
 Frequencies --   1427.4192              1440.4363              1467.0037
 Red. masses --      1.2481                 1.3518                 1.0787
 Frc consts  --      1.4983                 1.6525                 1.3678
 IR Inten    --     17.8322                 5.9448                 3.7842

                     31                     32                     33
                      A                      A                      A
 Frequencies --   1482.6487              1500.2374              1504.0929
 Red. masses --      1.0708                 1.0420                 1.0674
 Frc consts  --      1.3868                 1.3818                 1.4228
 IR Inten    --     12.5447                10.8418                16.3231

                     34                     35                     36
                      A                      A                      A
 Frequencies --   1506.8600              1509.8896              1619.6206
 Red. masses --      1.0416                 1.0587                 1.0891
 Frc consts  --      1.3935                 1.4220                 1.6833
 IR Inten    --     16.1970                17.1962                89.9573

                     37                     38                     39
                      A                      A                      A
 Frequencies --   3014.5495              3038.1897              3065.6306
 Red. masses --      1.0710                 1.0670                 1.0423
 Frc consts  --      5.7345                 5.8027                 5.7712
 IR Inten    --     11.5615                15.7817                10.9828

                     40                     41                     42
                      A                      A                      A
 Frequencies --   3086.2216              3104.8999              3120.6901
 Red. masses --      1.0359                 1.0965                 1.0931
 Frc consts  --      5.8131                 6.2282                 6.2720
 IR Inten    --      2.6866                 6.4083                 6.5474

                     43                     44                     45
                      A                      A                      A
 Frequencies --   3142.1955              3166.9450              3168.6609
 Red. masses --      1.0975                 1.1028                 1.1035
 Frc consts  --      6.3846                 6.5167                 6.5278
 IR Inten    --      3.5112                 2.3685                 0.5799

                     46                     47                     48
                      A                      A                      A
 Frequencies --   3170.2078              3631.4482              3770.5616
 Red. masses --      1.1046                 1.0467                 1.0843
 Frc consts  --      6.5410                 8.1328                 9.0827
 IR Inten    --      2.9408               144.7999               289.6360

 - Thermochemistry -
 -------------------
 Temperature     0.001 Kelvin.  Pressure   1.00000 Atm.
 Atom     1 has atomic number  6 and mass  12.00000

 Molecular mass:    90.09189 amu.
 Principal axes and moments of inertia in atomic units:
                           1         2         3
     Eigenvalues --   253.60706 908.181881056.80754
           X            0.99999  -0.00526  -0.00079
           Y            0.00525   0.99985  -0.01673
           Z            0.00088   0.01673   0.99986
 This molecule is an asymmetric top.
 Rotational symmetry number  1.
 Rotational temperatures (Kelvin)      0.34153     0.09537     0.08196
 Rotational constants (GHZ):           7.11629     1.98720     1.70773
 Zero-point vibrational energy     435063.8 (Joules/Mol)
                                  103.98274 (Kcal/Mol)
 Vibrational temperatures:    160.90   179.47   284.81   315.46   336.31
          (Kelvin)            383.05   459.79   597.89   631.96   729.64
                              817.86  1098.32  1143.16  1185.70  1225.70
                             1385.14  1463.09  1492.28  1542.67  1585.14
                             1656.35  1724.50  1730.14  1858.58  1930.30
                             1981.62  2024.66  2053.74  2072.47  2110.69
                             2133.20  2158.51  2164.05  2168.04  2172.39
                             2330.27  4337.26  4371.28  4410.76  4440.38
                             4467.26  4489.98  4520.92  4556.53  4559.00
                             4561.22  5224.84  5425.00

 Zero-point correction=                           0.165707 (Hartree/Particle)
 Thermal correction to Energy=                    0.165707
 Thermal correction to Enthalpy=                  0.165707
 Thermal correction to Gibbs Free Energy=         0.165707
 Sum of electronic and zero-point Energies=           -289.054636
 Sum of electronic and thermal Energies=              -289.054636
 Sum of electronic and thermal Enthalpies=            -289.054636
 Sum of electronic and thermal Free Energies=         -289.054635

                     E (Thermal)             CV                S
                      KCal/Mol        Cal/Mol-Kelvin    Cal/Mol-Kelvin
 Total                  103.983              5.962            -33.801
 Electronic               0.000              0.000              0.000
 Translational            0.000              2.981            -23.217
 Rotational               0.000              2.981            -10.585
 Vibrational            103.983              0.000              0.000

 Optimization completed.
    -- Stationary point found.
 Normal termination of Gaussian 16 at Mon Dec 30 17:00:52 2019.
