 Gaussian 16, Revision A.03,
 Gaussian 16:  ES64L-G16RevA.03 25-Dec-2016

 -------------------------------------------------------------------
 #p opt freq m062x/6-311++g(d,p) geom=connectivity temperature=0.001
 -------------------------------------------------------------------

 -------------------
 Title Card Required
 -------------------
 Symbolic Z-matrix:
 Charge =  1 Multiplicity = 1

 SCF Done:  E(RM062X) =  -607.745856248     A.U. after   17 cycles
 SCF Done:  E(RM062X) =  -607.802665702     A.U. after   15 cycles
 SCF Done:  E(RM062X) =  -607.829613598     A.U. after   15 cycles
 SCF Done:  E(RM062X) =  -607.835662985     A.U. after   14 cycles
 SCF Done:  E(RM062X) =  -607.844246419     A.U. after   14 cycles
 SCF Done:  E(RM062X) =  -607.855265278     A.U. after   16 cycles
 SCF Done:  E(RM062X) =  -607.858419513     A.U. after   15 cycles
 SCF Done:  E(RM062X) =  -607.861115193     A.U. after   15 cycles
 SCF Done:  E(RM062X) =  -607.861962355     A.U. after   14 cycles
 SCF Done:  E(RM062X) =  -607.862318655     A.U. after   14 cycles
 SCF Done:  E(RM062X) =  -607.864222895     A.U. after   14 cycles
 SCF Done:  E(RM062X) =  -607.864794646     A.U. after   13 cycles
 SCF Done:  E(RM062X) =  -607.865292590     A.U. after   13 cycles
 SCF Done:  E(RM062X) =  -607.865525415     A.U. after   13 cycles
 SCF Done:  E(RM062X) =  -607.865562168     A.U. after   13 cycles
 SCF Done:  E(RM062X) =  -607.865573530     A.U. after   12 cycles
 SCF Done:  E(RM062X) =  -607.865577342     A.U. after   12 cycles
 SCF Done:  E(RM062X) =  -607.865577780     A.U. after    9 cycles
 SCF Done:  E(RM062X) =  -607.865577887     A.U. after    9 cycles
 Optimization completed.
    -- Stationary point found.
 Normal termination of Gaussian 16 at Mon Dec 30 17:09:59 2019.

 ----------------------------------------------------------------------
 #P Geom=AllCheck Guess=TCheck SCRF=Check GenChk RM062X/6-311++G(d,p) F
 req
 ----------------------------------------------------------------------

 Structure from the checkpoint file:  "2_p_b.chk"
 -------------------
 Title Card Required
 -------------------
 Charge =  1 Multiplicity = 1

                         Standard orientation:
 ---------------------------------------------------------------------
 Center     Atomic      Atomic             Coordinates (Angstroms)
 Number     Number       Type             X           Y           Z
 ---------------------------------------------------------------------
      1          8           0       -0.042693    3.109196    0.000478
      2          7           0        1.109317    1.978739    0.000348
      3          6           0        0.519844    0.858872   -0.000273
      4          6           0        1.447863   -0.381905   -0.000135
      5          8           0        2.733464   -0.195468   -0.000475
      6          6           0        3.541656   -1.395740   -0.000175
      7          7           0        0.783031   -1.463236    0.000373
      8          6           0       -0.592689   -1.106157    0.000314
      9          6           0       -1.654772   -1.980778    0.000590
     10          6           0       -2.944782   -1.435857    0.000169
     11          6           0       -3.166647   -0.059360   -0.000517
     12          6           0       -2.095537    0.828903   -0.000697
     13          6           0       -0.811073    0.291129   -0.000205
     14          1           0        0.145222    3.653427    0.788320
     15          1           0        4.568440   -1.046146    0.000817
     16          1           0        3.318750   -1.978898    0.892278
     17          1           0        3.320286   -1.978120   -0.893531
     18          1           0       -1.487896   -3.049907    0.001036
     19          1           0       -3.796616   -2.105598    0.000312
     20          1           0       -4.179172    0.322048   -0.000924
     21          1           0       -2.270797    1.895811   -0.001293
     22          1           0        0.146001    3.654390   -0.786511
 ---------------------------------------------------------------------

 SCF Done:  E(RM062X) =  -607.865577887     A.U. after    1 cycles

 The electronic state is 1-A.
 Alpha  occ. eigenvalues --  -19.96043 -19.82388 -15.03408 -14.89747 -10.81649
 Alpha  occ. eigenvalues --  -10.80281 -10.73634 -10.71762 -10.71585 -10.71262
 Alpha  occ. eigenvalues --  -10.69722 -10.68615 -10.68576  -1.47006  -1.37910
 Alpha  occ. eigenvalues --   -1.24699  -1.20931  -1.10631  -1.01863  -0.99255
 Alpha  occ. eigenvalues --   -0.97361  -0.91821  -0.91617  -0.85490  -0.84576
 Alpha  occ. eigenvalues --   -0.80260  -0.78292  -0.76540  -0.73337  -0.73087
 Alpha  occ. eigenvalues --   -0.71682  -0.67972  -0.65647  -0.65484  -0.65264
 Alpha  occ. eigenvalues --   -0.62968  -0.60851  -0.59355  -0.57567  -0.57436
 Alpha  occ. eigenvalues --   -0.56324  -0.56136  -0.51803  -0.50308  -0.46426
 Alpha  occ. eigenvalues --   -0.42666
 Alpha virt. eigenvalues --   -0.22537  -0.20333  -0.15358  -0.12807  -0.11264
 Alpha virt. eigenvalues --   -0.09850  -0.09425  -0.08343  -0.07544  -0.07312
 Alpha virt. eigenvalues --   -0.06454  -0.06190  -0.05097  -0.04851  -0.04657

 Mulliken charges:
               1
     1  O   -0.004407
     2  N   -0.298050
     3  C    0.323167
     4  C   -0.630821
     5  O   -0.067195
     6  C   -0.308481
     7  N    0.083788
     8  C   -0.624909
     9  C   -0.388634
    10  C   -0.184902
    11  C   -0.294161
    12  C   -0.242853
    13  C    1.303619
    14  H    0.360483
    15  H    0.208695
    16  H    0.219202
    17  H    0.219315
    18  H    0.260984
    19  H    0.251947
    20  H    0.243303
    21  H    0.209363
    22  H    0.360549
 Sum of Mulliken charges =   1.00000

 Dipole moment (field-independent basis, Debye):
    X=             -0.6685    Y=              7.3619    Z=              0.0017  Tot=              7.3922
 Quadrupole moment (field-independent basis, Debye-Ang):
   XX=            -45.8246   YY=            -26.5712   ZZ=            -72.4647
   XY=             -2.0265   XZ=              0.0004   YZ=              0.0057

  Exact polarizability: 170.522  11.819 146.565   0.001  -0.006  65.349
 Approx polarizability: 205.451  24.488 197.148   0.001  -0.017  88.539

                      1                      2                      3
                      A                      A                      A
 Frequencies --     78.2157                96.6371               134.2802
 Red. masses --      3.5380                 3.5382                 1.6622
 Frc consts  --      0.0128                 0.0195                 0.0177
 IR Inten    --      2.2842                20.4406                 0.1024

                      4                      5                      6
                      A                      A                      A
 Frequencies --    158.5143               162.9935               184.0136
 Red. masses --      1.8807                 4.3881                 3.9421
 Frc consts  --      0.0278                 0.0687                 0.0786
 IR Inten    --      1.8026                12.0590                 0.2861

                      7                      8                      9
                      A                      A                      A
 Frequencies --    185.5380               234.7370               288.1395
 Red. masses --      1.1510                 4.7222                 6.7096
 Frc consts  --      0.0233                 0.1533                 0.3282
 IR Inten    --     49.7275                 0.7202                 1.1260

                     10                     11                     12
                      A                      A                      A
 Frequencies --    300.1149               359.0794               393.5974
 Red. masses --      6.0758                 4.8602                 3.3229
 Frc consts  --      0.3224                 0.3692                 0.3033
 IR Inten    --     64.2795                 1.8451                 0.0125

                     13                     14                     15
                      A                      A                      A
 Frequencies --    476.4892               507.0193               534.7346
 Red. masses --      7.2722                 4.1053                 8.9328
 Frc consts  --      0.9728                 0.6218                 1.5049
 IR Inten    --     15.0190                24.5539               144.1014

                     16                     17                     18
                      A                      A                      A
 Frequencies --    549.6110               575.0656               638.1738
 Red. masses --      7.6755                 4.8826                 7.9330
 Frc consts  --      1.3661                 0.9513                 1.9036
 IR Inten    --     41.8353                 8.4197                 6.5434

                     19                     20                     21
                      A                      A                      A
 Frequencies --    720.4684               724.7630               730.6643
 Red. masses --      6.1995                 4.4576                 5.2032
 Frc consts  --      1.8960                 1.3796                 1.6366
 IR Inten    --      1.3143                10.1803                 6.9519

                     22                     23                     24
                      A                      A                      A
 Frequencies --    763.3323               793.2073               882.1208
 Red. masses --      5.7169                 1.4263                 1.6694
 Frc consts  --      1.9626                 0.5287                 0.7654
 IR Inten    --     23.4416                63.2426               110.3253

                     25                     26                     27
                      A                      A                      A
 Frequencies --    903.4769               903.7172               969.6811
 Red. masses --      1.2876                 4.8749                 1.1570
 Frc consts  --      0.6192                 2.3458                 0.6410
 IR Inten    --      3.3872                 4.0116                 0.0061

                     28                     29                     30
                      A                      A                      A
 Frequencies --    975.3618               989.1878              1031.8563
 Red. masses --      4.7897                 1.3684                 1.3251
 Frc consts  --      2.6847                 0.7889                 0.8312
 IR Inten    --    114.9658                 0.8567                 0.2126

                     31                     32                     33
                      A                      A                      A
 Frequencies --   1047.6897              1066.8992              1116.9916
 Red. masses --      2.5191                 4.1559                 2.6086
 Frc consts  --      1.6292                 2.7871                 1.9176
 IR Inten    --      5.4126                 7.5923                22.9970

                     34                     35                     36
                      A                      A                      A
 Frequencies --   1176.5917              1183.6643              1203.2180
 Red. masses --      1.3728                 1.2714                 1.6073
 Frc consts  --      1.1198                 1.0495                 1.3710
 IR Inten    --     34.2771                 1.2085                12.2848

                     37                     38                     39
                      A                      A                      A
 Frequencies --   1213.3232              1247.6951              1307.2183
 Red. masses --      1.6400                 3.5966                 2.3060
 Frc consts  --      1.4224                 3.2988                 2.3217
 IR Inten    --      0.2777                29.6364               251.0805

                     40                     41                     42
                      A                      A                      A
 Frequencies --   1330.9912              1394.0806              1479.0338
 Red. masses --      2.5564                 4.1723                 1.5312
 Frc consts  --      2.6683                 4.7775                 1.9735
 IR Inten    --    114.0670               137.6229                15.0041

                     43                     44                     45
                      A                      A                      A
 Frequencies --   1484.9462              1492.3069              1500.5051
 Red. masses --      1.9181                 1.0413                 1.0580
 Frc consts  --      2.4920                 1.3663                 1.4035
 IR Inten    --     55.2600                17.0572                17.8531

                     46                     47                     48
                      A                      A                      A
 Frequencies --   1516.3924              1622.9414              1648.5898
 Red. masses --      2.6834                 1.0987                 6.1526
 Frc consts  --      3.6355                 1.7050                 9.8522
 IR Inten    --      5.7529               103.8902                 9.7711

                     49                     50                     51
                      A                      A                      A
 Frequencies --   1668.4297              1715.0676              1757.0748
 Red. masses --      7.6024                10.0564                10.0446
 Frc consts  --     12.4686                17.4284                18.2710
 IR Inten    --    500.3178                50.4244               450.1175

                     52                     53                     54
                      A                      A                      A
 Frequencies --   3095.7707              3182.9063              3217.4612
 Red. masses --      1.0300                 1.1089                 1.0903
 Frc consts  --      5.8159                 6.6189                 6.6497
 IR Inten    --      8.6085                 3.0355                 0.0299

                     55                     56                     57
                      A                      A                      A
 Frequencies --   3227.3278              3235.5635              3242.8929
 Red. masses --      1.1080                 1.0921                 1.0959
 Frc consts  --      6.7995                 6.7362                 6.7901
 IR Inten    --      1.7206                 0.5329                 2.5904

                     58                     59                     60
                      A                      A                      A
 Frequencies --   3251.9948              3686.7999              3771.9485
 Red. masses --      1.0958                 1.0438                 1.0863
 Frc consts  --      6.8281                 8.3596                 9.1059
 IR Inten    --      0.0127               521.2940               294.0480

 - Thermochemistry -
 -------------------
 Temperature     0.001 Kelvin.  Pressure   1.00000 Atm.
 Atom     1 has atomic number  8 and mass  15.99491

 Molecular mass:   177.06640 amu.
 Principal axes and moments of inertia in atomic units:
                           1         2         3
     Eigenvalues --  1520.709362615.285784115.59138
           X            0.99948  -0.03231   0.00000
           Y            0.03231   0.99948   0.00000
           Z           -0.00000  -0.00000   1.00000
 This molecule is an asymmetric top.
 Rotational symmetry number  1.
 Warning -- assumption of classical behavior for rotation
           may cause significant error
 Rotational temperatures (Kelvin)      0.05696     0.03312     0.02105
 Rotational constants (GHZ):           1.18678     0.69007     0.43851
 Zero-point vibrational energy     450580.1 (Joules/Mol)
                                  107.69122 (Kcal/Mol)
 Vibrational temperatures:    112.53   139.04   193.20   228.07   234.51
          (Kelvin)            264.75   266.95   337.73   414.57   431.80
                              516.64   566.30   685.56   729.49   769.36
                              790.77   827.39   918.19  1036.59  1042.77
                             1051.26  1098.26  1141.25  1269.18  1299.90
                             1300.25  1395.15  1403.33  1423.22  1484.61
                             1507.39  1535.03  1607.10  1692.85  1703.03
                             1731.16  1745.70  1795.15  1880.80  1915.00
                             2005.77  2128.00  2136.51  2147.10  2158.89
                             2181.75  2335.05  2371.95  2400.50  2467.60
                             2528.04  4454.12  4579.49  4629.21  4643.40
                             4655.25  4665.80  4678.90  5304.48  5426.99

 Zero-point correction=                           0.171617 (Hartree/Particle)
 Thermal correction to Energy=                    0.171617
 Thermal correction to Enthalpy=                  0.171617
 Thermal correction to Gibbs Free Energy=         0.171617
 Sum of electronic and zero-point Energies=           -607.693961
 Sum of electronic and thermal Energies=              -607.693961
 Sum of electronic and thermal Enthalpies=            -607.693961
 Sum of electronic and thermal Free Energies=         -607.693961

                     E (Thermal)             CV                S
                      KCal/Mol        Cal/Mol-Kelvin    Cal/Mol-Kelvin
 Total                  107.691              5.962            -27.606
 Electronic               0.000              0.000              0.000
 Translational            0.000              2.981            -21.202
 Rotational               0.000              2.981             -6.403
 Vibrational            107.691              0.000              0.000

                           ! Non-Optimized Parameters !
 Normal termination of Gaussian 16 at Mon Dec 30 17:13:47 2019.
