 Gaussian 16, Revision A.03,
 Gaussian 16:  ES64L-G16RevA.03 25-Dec-2016

 -------------------------------------------------------------------
 #P opt freq m062x/6-311++g(d,p) geom=connectivity temperature=0.001
 -------------------------------------------------------------------

 -------------------
 Title Card Required
 -------------------
 Symbolic Z-matrix:
 Charge =  1 Multiplicity = 1

 SCF Done:  E(RM062X) =  -607.840490435     A.U. after   18 cycles
 SCF Done:  E(RM062X) =  -607.881974843     A.U. after   16 cycles
 SCF Done:  E(RM062X) =  -607.894516340     A.U. after   15 cycles
 SCF Done:  E(RM062X) =  -607.901552461     A.U. after   15 cycles
 SCF Done:  E(RM062X) =  -607.908783976     A.U. after   17 cycles
 SCF Done:  E(RM062X) =  -607.911235798     A.U. after   14 cycles
 SCF Done:  E(RM062X) =  -607.913618825     A.U. after   15 cycles
 SCF Done:  E(RM062X) =  -607.913950694     A.U. after   13 cycles
 SCF Done:  E(RM062X) =  -607.914142964     A.U. after   14 cycles
 SCF Done:  E(RM062X) =  -607.914184661     A.U. after   13 cycles
 SCF Done:  E(RM062X) =  -607.914213464     A.U. after   12 cycles
 SCF Done:  E(RM062X) =  -607.914217274     A.U. after   11 cycles
 SCF Done:  E(RM062X) =  -607.914219519     A.U. after   12 cycles
 SCF Done:  E(RM062X) =  -607.914220341     A.U. after   11 cycles
 SCF Done:  E(RM062X) =  -607.914220878     A.U. after    9 cycles
 SCF Done:  E(RM062X) =  -607.914221069     A.U. after   10 cycles
 Optimization completed.
    -- Stationary point found.
 Normal termination of Gaussian 16 at Sun Oct 13 23:17:49 2019.

 ----------------------------------------------------------------------
 #P Geom=AllCheck Guess=TCheck SCRF=Check GenChk RM062X/6-311++G(d,p) F
 req
 ----------------------------------------------------------------------

 Structure from the checkpoint file:  "2_p.chk"
 -------------------
 Title Card Required
 -------------------
 Charge =  1 Multiplicity = 1

                         Standard orientation:
 ---------------------------------------------------------------------
 Center     Atomic      Atomic             Coordinates (Angstroms)
 Number     Number       Type             X           Y           Z
 ---------------------------------------------------------------------
      1          8           0        0.273665    3.081178   -0.090792
      2          7           0        1.054936    1.973942    0.026451
      3          6           0        0.522511    0.800678    0.006338
      4          6           0        1.379090   -0.452507    0.000037
      5          8           0        2.675738   -0.288980   -0.010325
      6          6           0        3.468463   -1.502895   -0.010842
      7          7           0        0.684045   -1.514759    0.011699
      8          6           0       -0.680477   -1.081721    0.013158
      9          6           0       -1.789145   -1.886966    0.013376
     10          6           0       -3.045890   -1.254852    0.002134
     11          6           0       -3.189443    0.132692   -0.012468
     12          6           0       -2.068054    0.954623   -0.013820
     13          6           0       -0.817993    0.332261    0.007049
     14          1           0        0.491036    3.667307    0.651373
     15          1           0        4.501168   -1.171704   -0.026498
     16          1           0        3.246024   -2.073106    0.889878
     17          1           0        3.223530   -2.086513   -0.897002
     18          1           0       -1.695667   -2.964972    0.018603
     19          1           0       -3.936955   -1.872087    0.000774
     20          1           0       -4.178962    0.569635   -0.027712
     21          1           0       -2.157894    2.032880   -0.037132
     22          1           0        2.065255    2.098817   -0.060162
 ---------------------------------------------------------------------

 SCF Done:  E(RM062X) =  -607.914221069     A.U. after    1 cycles

 The electronic state is 1-A.
 Alpha  occ. eigenvalues --  -19.88465 -19.84220 -15.07725 -14.90971 -10.82884
 Alpha  occ. eigenvalues --  -10.82426 -10.74775 -10.73025 -10.72327 -10.72244
 Alpha  occ. eigenvalues --  -10.71214 -10.69728 -10.69409  -1.45769  -1.39312
 Alpha  occ. eigenvalues --   -1.25220  -1.21290  -1.11650  -1.04086  -1.00417
 Alpha  occ. eigenvalues --   -0.99040  -0.94411  -0.89931  -0.87761  -0.85217
 Alpha  occ. eigenvalues --   -0.81336  -0.79188  -0.76601  -0.74499  -0.73465
 Alpha  occ. eigenvalues --   -0.72237  -0.68519  -0.66718  -0.66039  -0.65682
 Alpha  occ. eigenvalues --   -0.64653  -0.63349  -0.59104  -0.58762  -0.58175
 Alpha  occ. eigenvalues --   -0.57486  -0.57227  -0.53018  -0.51688  -0.47446
 Alpha  occ. eigenvalues --   -0.43889
 Alpha virt. eigenvalues --   -0.25374  -0.14527  -0.13439  -0.11402  -0.09946
 Alpha virt. eigenvalues --   -0.09591  -0.08586  -0.07938  -0.07876  -0.07450
 Alpha virt. eigenvalues --   -0.05686  -0.05307  -0.04987  -0.04700  -0.04483

 Mulliken charges:
               1
     1  O    0.032789
     2  N   -0.411071
     3  C    0.306221
     4  C   -0.622803
     5  O   -0.135713
     6  C   -0.292383
     7  N    0.074497
     8  C   -0.891363
     9  C   -0.342985
    10  C   -0.164647
    11  C   -0.284926
    12  C   -0.111994
    13  C    1.452006
    14  H    0.318821
    15  H    0.200824
    16  H    0.225200
    17  H    0.224561
    18  H    0.264882
    19  H    0.259851
    20  H    0.248828
    21  H    0.250065
    22  H    0.399341
 Sum of Mulliken charges =   1.00000

 Dipole moment (field-independent basis, Debye):
    X=              1.7465    Y=              3.8350    Z=              1.1947  Tot=              4.3800
 Quadrupole moment (field-independent basis, Debye-Ang):
   XX=            -34.2672   YY=            -44.8109   ZZ=            -74.3475
   XY=              5.3361   XZ=              0.5299   YZ=              5.2608

  Exact polarizability: 177.272  17.978 139.778   0.515   1.039  63.302
 Approx polarizability: 214.520  33.895 187.608   0.868   0.671  85.837

                      1                      2                      3
                      A                      A                      A
 Frequencies --     90.4155               100.1829               130.9581
 Red. masses --      3.7357                 4.2748                 1.4607
 Frc consts  --      0.0180                 0.0253                 0.0148
 IR Inten    --      3.3319                 6.8519                 0.5210

                      4                      5                      6
                      A                      A                      A
 Frequencies --    145.8453               159.4282               178.2233
 Red. masses --      4.7564                 2.0971                 3.8738
 Frc consts  --      0.0596                 0.0314                 0.0725
 IR Inten    --      2.7453                 3.0477                 2.2374

                      7                      8                      9
                      A                      A                      A
 Frequencies --    250.9156               272.6637               293.7240
 Red. masses --      4.5738                 1.2454                 4.6636
 Frc consts  --      0.1697                 0.0546                 0.2371
 IR Inten    --     11.1410               209.8182                16.5133

                     10                     11                     12
                      A                      A                      A
 Frequencies --    348.4958               388.6035               400.8553
 Red. masses --      4.4022                 3.1890                 6.5146
 Frc consts  --      0.3150                 0.2837                 0.6168
 IR Inten    --     12.9153                 1.4566                 0.8598

                     13                     14                     15
                      A                      A                      A
 Frequencies --    479.0264               509.1379               558.3396
 Red. masses --      7.1126                 3.8900                 5.1815
 Frc consts  --      0.9616                 0.5941                 0.9517
 IR Inten    --     10.1731                17.5265                 7.6931

                     16                     17                     18
                      A                      A                      A
 Frequencies --    559.3903               634.9276               706.2572
 Red. masses --      6.6549                 7.6250                 2.1189
 Frc consts  --      1.2269                 1.8111                 0.6227
 IR Inten    --     15.0281                 0.8112                45.4944

                     19                     20                     21
                      A                      A                      A
 Frequencies --    716.0082               739.4052               756.4733
 Red. masses --      6.2635                 6.2020                 3.9134
 Frc consts  --      1.8919                 1.9978                 1.3195
 IR Inten    --      2.2766                 6.3086                44.2258

                     22                     23                     24
                      A                      A                      A
 Frequencies --    770.4430               799.8185               894.8853
 Red. masses --      2.2676                 1.3345                 6.5507
 Frc consts  --      0.7930                 0.5030                 3.0908
 IR Inten    --     41.4143                81.8778                 3.9174

                     25                     26                     27
                      A                      A                      A
 Frequencies --    914.5064               968.1773              1002.6680
 Red. masses --      1.2879                 6.9384                 1.3730
 Frc consts  --      0.6346                 3.8319                 0.8133
 IR Inten    --      1.6987                42.0863                 1.4300

                     28                     29                     30
                      A                      A                      A
 Frequencies --   1035.6795              1040.5265              1086.9158
 Red. masses --      1.3414                 2.2286                 4.5341
 Frc consts  --      0.8477                 1.4216                 3.1560
 IR Inten    --      0.3709                 6.3935                49.4163

                     31                     32                     33
                      A                      A                      A
 Frequencies --   1111.4621              1152.7260              1183.4816
 Red. masses --      2.9300                 3.0009                 1.2758
 Frc consts  --      2.1326                 2.3494                 1.0528
 IR Inten    --     38.2523                40.7787                18.7555

                     34                     35                     36
                      A                      A                      A
 Frequencies --   1183.6182              1204.7596              1224.7903
 Red. masses --      1.2774                 2.1518                 1.9436
 Frc consts  --      1.0543                 1.8401                 1.7178
 IR Inten    --     30.6410                 2.6051                29.5364

                     37                     38                     39
                      A                      A                      A
 Frequencies --   1246.3290              1310.2657              1344.4400
 Red. masses --      2.7624                 1.8997                 2.9043
 Frc consts  --      2.5281                 1.9216                 3.0929
 IR Inten    --     46.5948               172.4325               116.0566

                     40                     41                     42
                      A                      A                      A
 Frequencies --   1395.4857              1421.4198              1469.6451
 Red. masses --      1.2602                 2.6165                 2.1994
 Frc consts  --      1.4459                 3.1147                 2.7988
 IR Inten    --     33.2137               229.0092                11.7749

                     43                     44                     45
                      A                      A                      A
 Frequencies --   1477.1961              1488.8881              1491.4677
 Red. masses --      1.5990                 1.4093                 1.0429
 Frc consts  --      2.0558                 1.8406                 1.3669
 IR Inten    --     24.7420                50.0521                18.3512

                     46                     47                     48
                      A                      A                      A
 Frequencies --   1500.5874              1537.1016              1654.2745
 Red. masses --      1.0549                 2.6049                 5.9753
 Frc consts  --      1.3996                 3.6261                 9.6344
 IR Inten    --     14.6205                 9.5415                50.9270

                     49                     50                     51
                      A                      A                      A
 Frequencies --   1678.2909              1760.1255              1763.8184
 Red. masses --      7.7891                10.0965                 7.3400
 Frc consts  --     12.9263                18.4293                13.4540
 IR Inten    --    561.0415               326.5447               221.4908

                     52                     53                     54
                      A                      A                      A
 Frequencies --   3097.1760              3186.1573              3217.8512
 Red. masses --      1.0298                 1.1093                 1.0906
 Frc consts  --      5.8199                 6.6347                 6.6537
 IR Inten    --      6.3609                 1.8707                 0.0585

                     55                     56                     57
                      A                      A                      A
 Frequencies --   3229.2718              3235.5737              3243.4435
 Red. masses --      1.1084                 1.0916                 1.0955
 Frc consts  --      6.8101                 6.7333                 6.7903
 IR Inten    --      1.4894                 0.7988                 4.8814

                     58                     59                     60
                      A                      A                      A
 Frequencies --   3247.3847              3506.1015              3777.6411
 Red. masses --      1.0980                 1.0803                 1.0685
 Frc consts  --      6.8222                 7.8246                 8.9837
 IR Inten    --      0.8909               330.0965               280.8731

 - Thermochemistry -
 -------------------
 Temperature     0.001 Kelvin.  Pressure   1.00000 Atm.
 Atom     1 has atomic number  8 and mass  15.99491

 Molecular mass:   177.06640 amu.
 Principal axes and moments of inertia in atomic units:
                           1         2         3
     Eigenvalues --  1472.282142621.946244078.60974
           X            0.99977  -0.02153   0.00027
           Y            0.02152   0.99975   0.00526
           Z           -0.00039  -0.00525   0.99999
 This molecule is an asymmetric top.
 Rotational symmetry number  1.
 Warning -- assumption of classical behavior for rotation
           may cause significant error
 Rotational temperatures (Kelvin)      0.05883     0.03303     0.02124
 Rotational constants (GHZ):           1.22581     0.68832     0.44249
 Zero-point vibrational energy     456217.9 (Joules/Mol)
                                  109.03869 (Kcal/Mol)
 Vibrational temperatures:    130.09   144.14   188.42   209.84   229.38
          (Kelvin)            256.42   361.01   392.30   422.60   501.41
                              559.11   576.74   689.21   732.54   803.33
                              804.84   913.52  1016.15  1030.18  1063.84
                             1088.40  1108.50  1150.76  1287.54  1315.77
                             1392.99  1442.62  1490.11  1497.09  1563.83
                             1599.15  1658.52  1702.77  1702.96  1733.38
                             1762.20  1793.19  1885.18  1934.35  2007.79
                             2045.11  2114.49  2125.36  2142.18  2145.89
                             2159.01  2211.55  2380.13  2414.69  2532.43
                             2537.74  4456.15  4584.17  4629.77  4646.20
                             4655.27  4666.59  4672.26  5044.50  5435.18

 Zero-point correction=                           0.173764 (Hartree/Particle)
 Thermal correction to Energy=                    0.173764
 Thermal correction to Enthalpy=                  0.173764
 Thermal correction to Gibbs Free Energy=         0.173764
 Sum of electronic and zero-point Energies=           -607.740457
 Sum of electronic and thermal Energies=              -607.740457
 Sum of electronic and thermal Enthalpies=            -607.740457
 Sum of electronic and thermal Free Energies=         -607.740457

                     E (Thermal)             CV                S
                      KCal/Mol        Cal/Mol-Kelvin    Cal/Mol-Kelvin
 Total                  109.039              5.962            -27.644
 Electronic               0.000              0.000              0.000
 Translational            0.000              2.981            -21.202
 Rotational               0.000              2.981             -6.442
 Vibrational            109.039              0.000              0.000

                           ! Non-Optimized Parameters !
 Normal termination of Gaussian 16 at Sun Oct 13 23:21:34 2019.
