 Gaussian 16, Revision A.03,
 Gaussian 16:  ES64L-G16RevA.03 25-Dec-2016

 -------------------------------------------------------------------
 #p opt freq m062x/6-311++g(d,p) geom=connectivity temperature=0.001
 -------------------------------------------------------------------

 -------------------
 Title Card Required
 -------------------
 Symbolic Z-matrix:
 Charge =  1 Multiplicity = 1

 SCF Done:  E(RM062X) =  -477.374020308     A.U. after   16 cycles
 SCF Done:  E(RM062X) =  -477.383277735     A.U. after   15 cycles
 SCF Done:  E(RM062X) =  -477.384262159     A.U. after   13 cycles
 SCF Done:  E(RM062X) =  -477.384506913     A.U. after   13 cycles
 SCF Done:  E(RM062X) =  -477.384733319     A.U. after   13 cycles
 SCF Done:  E(RM062X) =  -477.384968664     A.U. after   13 cycles
 SCF Done:  E(RM062X) =  -477.385135271     A.U. after   13 cycles
 SCF Done:  E(RM062X) =  -477.385198097     A.U. after   12 cycles
 SCF Done:  E(RM062X) =  -477.385199301     A.U. after   10 cycles
 SCF Done:  E(RM062X) =  -477.385199489     A.U. after   10 cycles
 SCF Done:  E(RM062X) =  -477.385199587     A.U. after    9 cycles
 Optimization completed.
    -- Stationary point found.
 Normal termination of Gaussian 16 at Mon Oct 14 10:48:00 2019.

 ----------------------------------------------------------------------
 #P Geom=AllCheck Guess=TCheck SCRF=Check GenChk RM062X/6-311++G(d,p) F
 req
 ----------------------------------------------------------------------

 Structure from the checkpoint file:  "4_p.chk"
 -------------------
 Title Card Required
 -------------------
 Charge =  1 Multiplicity = 1

                         Standard orientation:
 ---------------------------------------------------------------------
 Center     Atomic      Atomic             Coordinates (Angstroms)
 Number     Number       Type             X           Y           Z
 ---------------------------------------------------------------------
      1          8           0       -1.676561   -2.030885   -0.068774
      2          7           0       -1.297607   -0.716417    0.013152
      3          6           0       -2.266459    0.191905   -0.020568
      4          6           0       -1.952276    1.548170   -0.018380
      5          6           0       -0.627864    1.923523    0.007533
      6          6           0        0.397722    0.955332    0.015882
      7          6           0        0.048023   -0.420255   -0.002071
      8          6           0        1.026431   -1.428279   -0.028027
      9          6           0        2.346682   -1.049055   -0.024110
     10          6           0        2.725614    0.312972    0.008947
     11          6           0        1.773824    1.295872    0.023768
     12          1           0       -3.273493   -0.204732   -0.046337
     13          1           0       -2.755613    2.270944   -0.038671
     14          1           0       -0.357638    2.973849    0.014214
     15          1           0        0.741879   -2.469737   -0.079003
     16          1           0        3.114578   -1.812446   -0.052838
     17          1           0        3.776471    0.572672    0.013439
     18          1           0        2.050430    2.343353    0.038938
     19          1           0       -1.631054   -2.393005    0.830549
 ---------------------------------------------------------------------

 SCF Done:  E(RM062X) =  -477.385199587     A.U. after    1 cycles

 The electronic state is 1-A.
 Alpha  occ. eigenvalues --  -19.87445 -15.08128 -10.79910 -10.78856 -10.75398
 Alpha  occ. eigenvalues --  -10.74590 -10.73848 -10.72036 -10.71927 -10.71795
 Alpha  occ. eigenvalues --  -10.70976  -1.45394  -1.24759  -1.14238  -1.10089
 Alpha  occ. eigenvalues --   -1.05109  -1.02027  -0.93447  -0.92235  -0.89119
 Alpha  occ. eigenvalues --   -0.83568  -0.80292  -0.78033  -0.77718  -0.74162
 Alpha  occ. eigenvalues --   -0.71127  -0.69020  -0.67974  -0.66447  -0.65807
 Alpha  occ. eigenvalues --   -0.63430  -0.60932  -0.59381  -0.58706  -0.57896
 Alpha  occ. eigenvalues --   -0.55431  -0.48705  -0.46500
 Alpha virt. eigenvalues --   -0.22872  -0.17144  -0.13637  -0.13248  -0.11155
 Alpha virt. eigenvalues --   -0.09963  -0.08950  -0.08186  -0.07935  -0.07659
 Alpha virt. eigenvalues --   -0.05930  -0.05631  -0.05313  -0.04457  -0.04055

 Mulliken charges:
               1
     1  O    0.043243
     2  N   -0.018229
     3  C    0.202510
     4  C   -0.675614
     5  C    0.910337
     6  C    2.147914
     7  C   -2.323625
     8  C   -0.866623
     9  C   -0.174654
    10  C   -0.372412
    11  C   -0.051392
    12  H    0.313832
    13  H    0.286694
    14  H    0.272666
    15  H    0.252949
    16  H    0.265852
    17  H    0.251872
    18  H    0.220589
    19  H    0.314091
 Sum of Mulliken charges =   1.00000

 Dipole moment (field-independent basis, Debye):
    X=             -1.6652    Y=              0.5275    Z=              1.4691  Tot=              2.2824
 Quadrupole moment (field-independent basis, Debye-Ang):
   XX=            -32.4412   YY=            -40.7277   ZZ=            -64.0006
   XY=             -1.5789   XZ=             -2.7334   YZ=             -4.1984

  Exact polarizability: 150.302  -7.692 118.449  -0.203  -0.818  54.004
 Approx polarizability: 198.519 -10.183 164.876   0.284  -0.436  74.070

                      1                      2                      3
                      A                      A                      A
 Frequencies --    134.4824               174.6815               252.4763
 Red. masses --      4.1956                 3.6746                 3.5415
 Frc consts  --      0.0447                 0.0661                 0.1330
 IR Inten    --      2.6067                 7.4578                 9.5124

                      4                      5                      6
                      A                      A                      A
 Frequencies --    279.1841               311.5428               408.0402
 Red. masses --      1.2862                 4.1397                 3.4152
 Frc consts  --      0.0591                 0.2367                 0.3350
 IR Inten    --    114.0177                 1.4190                 5.5070

                      7                      8                      9
                      A                      A                      A
 Frequencies --    465.2162               483.0537               494.7762
 Red. masses --      3.2364                 4.6986                 7.3654
 Frc consts  --      0.4127                 0.6460                 1.0623
 IR Inten    --      4.3376                 1.7808                 0.3520

                     10                     11                     12
                      A                      A                      A
 Frequencies --    522.9291               547.3915               584.0445
 Red. masses --      3.4238                 6.5927                 7.0067
 Frc consts  --      0.5516                 1.1639                 1.4082
 IR Inten    --      9.6256                 0.5887                 7.1031

                     13                     14                     15
                      A                      A                      A
 Frequencies --    606.8385               731.1967               739.0839
 Red. masses --      3.3079                 3.8901                 5.7180
 Frc consts  --      0.7177                 1.2254                 1.8403
 IR Inten    --      2.9207                 7.0919                 5.6046

                     16                     17                     18
                      A                      A                      A
 Frequencies --    780.6260               814.9100               831.5045
 Red. masses --      1.3014                 5.5376                 1.3161
 Frc consts  --      0.4673                 2.1667                 0.5361
 IR Inten    --     34.3105                 1.4164                88.6451

                     19                     20                     21
                      A                      A                      A
 Frequencies --    889.6683               891.6467               981.3309
 Red. masses --      1.4632                 3.7625                 1.3497
 Frc consts  --      0.6823                 1.7624                 0.7658
 IR Inten    --      1.7989                 0.5685                 0.4849

                     22                     23                     24
                      A                      A                      A
 Frequencies --   1007.5275              1024.8207              1039.8839
 Red. masses --      1.3163                 1.3508                 1.3334
 Frc consts  --      0.7872                 0.8359                 0.8495
 IR Inten    --      0.4551                 1.3237                 0.0677

                     25                     26                     27
                      A                      A                      A
 Frequencies --   1054.3446              1081.7018              1128.1877
 Red. masses --      2.5677                 2.9091                 1.9346
 Frc consts  --      1.6818                 2.0055                 1.4508
 IR Inten    --      0.7376                 2.1045                 8.6901

                     28                     29                     30
                      A                      A                      A
 Frequencies --   1181.5230              1192.2677              1211.8003
 Red. masses --      1.2618                 1.2041                 1.5220
 Frc consts  --      1.0378                 1.0085                 1.3168
 IR Inten    --     17.3821                 3.3925                 4.0361

                     31                     32                     33
                      A                      A                      A
 Frequencies --   1257.3092              1271.9225              1307.4107
 Red. masses --      2.0083                 1.9648                 1.8305
 Frc consts  --      1.8705                 1.8728                 1.8435
 IR Inten    --     23.9807                16.5344                19.5694

                     34                     35                     36
                      A                      A                      A
 Frequencies --   1356.1734              1410.6172              1419.5482
 Red. masses --      2.5507                 1.3358                 7.5386
 Frc consts  --      2.7640                 1.5661                 8.9504
 IR Inten    --      4.5603               101.0878                74.8836

                     37                     38                     39
                      A                      A                      A
 Frequencies --   1449.8116              1494.2168              1513.3395
 Red. masses --      2.0990                 2.0195                 2.6626
 Frc consts  --      2.5995                 2.6565                 3.5928
 IR Inten    --      0.0327                 0.6981                 3.9277

                     40                     41                     42
                      A                      A                      A
 Frequencies --   1584.4443              1648.1194              1665.3463
 Red. masses --      4.1529                 6.2992                 5.4968
 Frc consts  --      6.1426                10.0812                 8.9818
 IR Inten    --     56.1136                32.3152                 0.4506

                     43                     44                     45
                      A                      A                      A
 Frequencies --   1698.2197              3218.6416              3221.0730
 Red. masses --      7.0297                 1.0931                 1.0901
 Frc consts  --     11.9447                 6.6717                 6.6637
 IR Inten    --     36.0824                 1.0946                 1.1493

                     46                     47                     48
                      A                      A                      A
 Frequencies --   3227.0579              3240.2485              3244.5730
 Red. masses --      1.0926                 1.0976                 1.0944
 Frc consts  --      6.7037                 6.7898                 6.7882
 IR Inten    --      0.8511                 2.7154                18.5889

                     49                     50                     51
                      A                      A                      A
 Frequencies --   3255.0885              3257.8676              3769.6546
 Red. masses --      1.0954                 1.0985                 1.0683
 Frc consts  --      6.8385                 6.8692                 8.9443
 IR Inten    --      5.7146                23.7902               152.1492

 - Thermochemistry -
 -------------------
 Temperature     0.001 Kelvin.  Pressure   1.00000 Atm.
 Atom     1 has atomic number  8 and mass  15.99491

 Molecular mass:   146.06059 amu.
 Principal axes and moments of inertia in atomic units:
                           1         2         3
     Eigenvalues --   910.065041568.613492472.90380
           X            0.99984  -0.01741  -0.00264
           Y            0.01740   0.99983  -0.00634
           Z            0.00275   0.00629   0.99998
 This molecule is an asymmetric top.
 Rotational symmetry number  1.
 Warning -- assumption of classical behavior for rotation
           may cause significant error
 Rotational temperatures (Kelvin)      0.09517     0.05522     0.03503
 Rotational constants (GHZ):           1.98309     1.15053     0.72981
 Zero-point vibrational energy     402886.5 (Joules/Mol)
                                   96.29219 (Kcal/Mol)
 Vibrational temperatures:    193.49   251.33   363.26   401.68   448.24
          (Kelvin)            587.08   669.34   695.01   711.87   752.38
                              787.57   840.31   873.11  1052.03  1063.38
                             1123.15  1172.47  1196.35  1280.03  1282.88
                             1411.92  1449.61  1474.49  1496.16  1516.97
                             1556.33  1623.21  1699.95  1715.41  1743.51
                             1808.99  1830.01  1881.07  1951.23  2029.56
                             2042.41  2085.96  2149.84  2177.36  2279.66
                             2371.28  2396.06  2443.36  4630.91  4634.41
                             4643.02  4661.99  4668.22  4683.35  4687.34
                             5423.69

 Zero-point correction=                           0.153451 (Hartree/Particle)
 Thermal correction to Energy=                    0.153451
 Thermal correction to Enthalpy=                  0.153451
 Thermal correction to Gibbs Free Energy=         0.153451
 Sum of electronic and zero-point Energies=           -477.231748
 Sum of electronic and thermal Energies=              -477.231748
 Sum of electronic and thermal Enthalpies=            -477.231748
 Sum of electronic and thermal Free Energies=         -477.231748

                     E (Thermal)             CV                S
                      KCal/Mol        Cal/Mol-Kelvin    Cal/Mol-Kelvin
 Total                   96.292              5.962            -29.703
 Electronic               0.000              0.000              0.000
 Translational            0.000              2.981            -21.776
 Rotational               0.000              2.981             -7.927
 Vibrational             96.292              0.000              0.000

 Optimization completed.
    -- Stationary point found.
 Normal termination of Gaussian 16 at Mon Oct 14 10:50:32 2019.
