 Gaussian 16, Revision A.03,
 Gaussian 16:  ES64L-G16RevA.03 25-Dec-2016

 -------------------------------------------------------------------
 #p opt freq m062x/6-311++g(d,p) geom=connectivity temperature=0.001
 -------------------------------------------------------------------

 -------------------
 Title Card Required
 -------------------
 Symbolic Z-matrix:
 Charge =  1 Multiplicity = 1

 SCF Done:  E(RM062X) =  -647.213492536     A.U. after   15 cycles
 SCF Done:  E(RM062X) =  -647.243023938     A.U. after   14 cycles
 SCF Done:  E(RM062X) =  -647.246429846     A.U. after   14 cycles
 SCF Done:  E(RM062X) =  -647.248170565     A.U. after   14 cycles
 SCF Done:  E(RM062X) =  -647.250690750     A.U. after   14 cycles
 SCF Done:  E(RM062X) =  -647.252499877     A.U. after   13 cycles
 SCF Done:  E(RM062X) =  -647.255553039     A.U. after   14 cycles
 SCF Done:  E(RM062X) =  -647.257494126     A.U. after   15 cycles
 SCF Done:  E(RM062X) =  -647.258908693     A.U. after   12 cycles
 SCF Done:  E(RM062X) =  -647.259821454     A.U. after   12 cycles
 SCF Done:  E(RM062X) =  -647.259986883     A.U. after   11 cycles
 SCF Done:  E(RM062X) =  -647.260041504     A.U. after   11 cycles
 SCF Done:  E(RM062X) =  -647.260057989     A.U. after   11 cycles
 SCF Done:  E(RM062X) =  -647.260063783     A.U. after   10 cycles
 SCF Done:  E(RM062X) =  -647.260065227     A.U. after    9 cycles
 SCF Done:  E(RM062X) =  -647.260065959     A.U. after    9 cycles
 SCF Done:  E(RM062X) =  -647.260066240     A.U. after    8 cycles
 SCF Done:  E(RM062X) =  -647.260066394     A.U. after    8 cycles
 Optimization completed.
    -- Stationary point found.
 Normal termination of Gaussian 16 at Thu Jan  2 19:27:05 2020.

 ----------------------------------------------------------------------
 #P Geom=AllCheck Guess=TCheck SCRF=Check GenChk RM062X/6-311++G(d,p) F
 req
 ----------------------------------------------------------------------

 Structure from the checkpoint file:  "7_p_c.chk"
 -------------------
 Title Card Required
 -------------------
 Charge =  1 Multiplicity = 1

                         Standard orientation:
 ---------------------------------------------------------------------
 Center     Atomic      Atomic             Coordinates (Angstroms)
 Number     Number       Type             X           Y           Z
 ---------------------------------------------------------------------
      1          6           0       -1.642358   -3.453075   -0.010116
      2          8           0       -1.766361   -2.020925    0.031804
      3          6           0       -0.682919   -1.294556    0.021192
      4          7           0        0.568238   -1.761864   -0.017088
      5          6           0        1.480897   -0.683156   -0.017454
      6          6           0        2.862290   -0.727173   -0.043626
      7          6           0        3.529130    0.493206   -0.026780
      8          6           0        2.824260    1.697221    0.021508
      9          6           0        1.434252    1.720256    0.049645
     10          6           0        0.743257    0.510009    0.022933
     11          6           0       -0.663868    0.126509    0.040731
     12          6           0       -1.842171    0.842056    0.039217
     13          7           0       -1.939512    2.156769    0.033813
     14          8           0       -3.174605    2.718136   -0.175855
     15          1           0       -1.104007   -3.805750    0.871684
     16          1           0       -2.658350   -3.833535    0.002285
     17          1           0       -1.144267   -3.756117   -0.933066
     18          1           0        3.403325   -1.664893   -0.074621
     19          1           0        4.611224    0.507376   -0.046738
     20          1           0        3.370492    2.631553    0.041408
     21          1           0        0.928252    2.676264    0.105885
     22          1           0       -2.795093    0.320187    0.055772
     23          1           0       -1.158678    2.767128   -0.177591
     24          1           0       -3.417203    3.164378    0.647593
     25          1           0        0.834336   -2.736393   -0.040777
 ---------------------------------------------------------------------

 SCF Done:  E(RM062X) =  -647.260066394     A.U. after    1 cycles

 The electronic state is 1-A.
 Alpha  occ. eigenvalues --  -19.84704 -19.83528 -15.01160 -14.97189 -10.83551
 Alpha  occ. eigenvalues --  -10.78211 -10.75070 -10.73136 -10.71178 -10.70111
 Alpha  occ. eigenvalues --  -10.68594 -10.68350 -10.67245 -10.67074  -1.40245
 Alpha  occ. eigenvalues --   -1.40069  -1.26530  -1.17510  -1.09851  -1.06342
 Alpha  occ. eigenvalues --   -1.00052  -0.98515  -0.96168  -0.92339  -0.86728
 Alpha  occ. eigenvalues --   -0.85409  -0.82844  -0.81137  -0.78857  -0.75404
 Alpha  occ. eigenvalues --   -0.74028  -0.73849  -0.72523  -0.70785  -0.67757
 Alpha  occ. eigenvalues --   -0.66102  -0.66001  -0.64868  -0.63987  -0.61790
 Alpha  occ. eigenvalues --   -0.59374  -0.58878  -0.58667  -0.56926  -0.55493
 Alpha  occ. eigenvalues --   -0.54356  -0.54150  -0.48310  -0.42812  -0.41033
 Alpha virt. eigenvalues --   -0.18278  -0.12198  -0.12120  -0.11590  -0.10004
 Alpha virt. eigenvalues --   -0.09281  -0.08966  -0.08133  -0.07820  -0.07272
 Alpha virt. eigenvalues --   -0.06587  -0.05824  -0.05348  -0.05204  -0.04675

 Mulliken charges:
               1
     1  C   -0.370577
     2  O   -0.095281
     3  C   -1.443986
     4  N   -0.017843
     5  C   -1.166626
     6  C   -0.604860
     7  C   -0.201017
     8  C   -0.451331
     9  C   -0.194029
    10  C    2.128681
    11  C    1.533131
    12  C   -0.531507
    13  N   -0.353334
    14  O    0.019523
    15  H    0.201256
    16  H    0.228699
    17  H    0.200591
    18  H    0.202587
    19  H    0.243452
    20  H    0.236101
    21  H    0.113526
    22  H    0.332268
    23  H    0.318527
    24  H    0.310248
    25  H    0.361804
 Sum of Mulliken charges =   1.00000

 Dipole moment (field-independent basis, Debye):
    X=             -2.0570    Y=             -1.9504    Z=              1.1544  Tot=              3.0607
 Quadrupole moment (field-independent basis, Debye-Ang):
   XX=            -50.9976   YY=            -32.2949   ZZ=            -83.2366
   XY=             -3.4184   XZ=             -5.3871   YZ=              4.6959

  Exact polarizability: 186.241 -10.197 168.915  -1.844   1.814  71.151
 Approx polarizability: 219.441 -17.029 209.934  -2.340   2.644  96.498

                      1                      2                      3
                      A                      A                      A
 Frequencies --     61.7679                86.5718                99.9768
 Red. masses --      4.5634                 3.4451                 5.6788
 Frc consts  --      0.0103                 0.0152                 0.0334
 IR Inten    --      4.8984                 2.0357                 1.8555

                      4                      5                      6
                      A                      A                      A
 Frequencies --    139.2467               172.0642               183.8990
 Red. masses --      3.1872                 2.7504                 3.6591
 Frc consts  --      0.0364                 0.0480                 0.0729
 IR Inten    --      4.1253                 3.8586                 1.9225

                      7                      8                      9
                      A                      A                      A
 Frequencies --    214.3367               217.7043               300.8343
 Red. masses --      1.3311                 2.3366                 4.0350
 Frc consts  --      0.0360                 0.0652                 0.2152
 IR Inten    --      0.4271                 9.1978                 4.9653

                     10                     11                     12
                      A                      A                      A
 Frequencies --    332.4943               348.5635               357.1197
 Red. masses --      4.8950                 4.6455                 2.4245
 Frc consts  --      0.3188                 0.3325                 0.1822
 IR Inten    --      1.9757                 6.9459                28.5685

                     13                     14                     15
                      A                      A                      A
 Frequencies --    405.0532               417.1155               466.0483
 Red. masses --      4.4432                 1.9207                 2.5950
 Frc consts  --      0.4295                 0.1969                 0.3321
 IR Inten    --     15.8230                69.4621                38.2363

                     16                     17                     18
                      A                      A                      A
 Frequencies --    493.2399               548.0127               571.4344
 Red. masses --      6.4446                 1.1440                 2.3443
 Frc consts  --      0.9238                 0.2024                 0.4510
 IR Inten    --      4.5023                70.7474                84.7818

                     19                     20                     21
                      A                      A                      A
 Frequencies --    605.4757               621.7532               657.3687
 Red. masses --      3.1298                 3.0120                 6.0515
 Frc consts  --      0.6760                 0.6860                 1.5408
 IR Inten    --     48.3638               104.0217                 2.0141

                     22                     23                     24
                      A                      A                      A
 Frequencies --    700.9862               728.3216               751.2011
 Red. masses --      4.8845                 4.2857                 4.0134
 Frc consts  --      1.4141                 1.3394                 1.3344
 IR Inten    --     29.4377                 0.7852                 4.1337

                     25                     26                     27
                      A                      A                      A
 Frequencies --    772.4341               799.9007               868.4040
 Red. masses --      1.6416                 4.3625                 1.3660
 Frc consts  --      0.5771                 1.6446                 0.6070
 IR Inten    --     99.5946                16.0866                 1.0863

                     28                     29                     30
                      A                      A                      A
 Frequencies --    887.4425               961.5095               981.5259
 Red. masses --      4.4976                 1.3692                 6.4839
 Frc consts  --      2.0869                 0.7458                 3.6804
 IR Inten    --      3.8182                 0.4627                17.3281

                     31                     32                     33
                      A                      A                      A
 Frequencies --   1005.1254              1017.6851              1058.0483
 Red. masses --      1.3364                 1.3085                 2.1887
 Frc consts  --      0.7955                 0.7985                 1.4436
 IR Inten    --     20.5164                 0.0334                13.8468

                     34                     35                     36
                      A                      A                      A
 Frequencies --   1101.0801              1130.6210              1158.4989
 Red. masses --      5.2843                 3.5326                 2.0642
 Frc consts  --      3.7747                 2.6606                 1.6323
 IR Inten    --    147.4661                13.7424                21.0597

                     37                     38                     39
                      A                      A                      A
 Frequencies --   1179.9591              1187.5657              1205.6761
 Red. masses --      1.2616                 1.2031                 1.6995
 Frc consts  --      1.0349                 0.9997                 1.4556
 IR Inten    --      1.2143                 0.8066                56.0031

                     40                     41                     42
                      A                      A                      A
 Frequencies --   1228.9132              1239.9155              1283.6063
 Red. masses --      1.7497                 2.0488                 1.9068
 Frc consts  --      1.5569                 1.8559                 1.8511
 IR Inten    --     39.3758                27.1490                69.5069

                     43                     44                     45
                      A                      A                      A
 Frequencies --   1323.7448              1344.2915              1380.7837
 Red. masses --      1.8879                 2.0644                 2.1040
 Frc consts  --      1.9491                 2.1980                 2.3635
 IR Inten    --     70.6990                54.2685                76.9783

                     46                     47                     48
                      A                      A                      A
 Frequencies --   1403.2734              1432.5280              1452.9007
 Red. masses --      1.5678                 1.1998                 2.5260
 Frc consts  --      1.8190                 1.4507                 3.1417
 IR Inten    --     79.9243                80.1729               164.5982

                     49                     50                     51
                      A                      A                      A
 Frequencies --   1479.6019              1503.7778              1508.9802
 Red. masses --      1.2471                 1.5982                 1.5175
 Frc consts  --      1.6085                 2.1294                 2.0358
 IR Inten    --     47.8056                76.2146                 3.0469

                     52                     53                     54
                      A                      A                      A
 Frequencies --   1511.9253              1542.3181              1557.8829
 Red. masses --      1.0420                 3.3467                 5.0247
 Frc consts  --      1.4033                 4.6904                 7.1851
 IR Inten    --     17.8815                48.0272               167.7466

                     55                     56                     57
                      A                      A                      A
 Frequencies --   1648.2907              1666.5148              1698.5758
 Red. masses --      5.6775                 6.0037                 6.7442
 Frc consts  --      9.0882                 9.8239                11.4644
 IR Inten    --    508.9867               104.3425                37.6356

                     58                     59                     60
                      A                      A                      A
 Frequencies --   1714.7715              3069.9581              3154.0932
 Red. masses --      5.0657                 1.0335                 1.1097
 Frc consts  --      8.7762                 5.7388                 6.5044
 IR Inten    --    652.4051                 9.9870                 5.0179

                     61                     62                     63
                      A                      A                      A
 Frequencies --   3206.9191              3213.5793              3216.4798
 Red. masses --      1.0930                 1.0890                 1.1031
 Frc consts  --      6.6228                 6.6263                 6.7243
 IR Inten    --     15.6373                 5.8829                 0.2152

                     64                     65                     66
                      A                      A                      A
 Frequencies --   3221.7944              3230.9394              3241.1289
 Red. masses --      1.0906                 1.0943                 1.0983
 Frc consts  --      6.6695                 6.7302                 6.7979
 IR Inten    --      0.9184                 0.4152                 0.4909

                     67                     68                     69
                      A                      A                      A
 Frequencies --   3600.0244              3655.7345              3803.2562
 Red. masses --      1.0785                 1.0810                 1.0688
 Frc consts  --      8.2352                 8.5120                 9.1085
 IR Inten    --    118.3668               151.0228               189.6133

 - Thermochemistry -
 -------------------
 Temperature     0.001 Kelvin.  Pressure   1.00000 Atm.
 Atom     1 has atomic number  6 and mass  12.00000

 Molecular mass:   191.08205 amu.
 Principal axes and moments of inertia in atomic units:
                           1         2         3
     Eigenvalues --  2287.752922976.148675244.18985
           X            0.99880   0.04897  -0.00275
           Y           -0.04896   0.99879   0.00362
           Z            0.00292  -0.00348   0.99999
 This molecule is an asymmetric top.
 Rotational symmetry number  1.
 Warning -- assumption of classical behavior for rotation
           may cause significant error
 Rotational temperatures (Kelvin)      0.03786     0.02910     0.01652
 Rotational constants (GHZ):           0.78887     0.60640     0.34414
 Zero-point vibrational energy     534327.4 (Joules/Mol)
                                  127.70732 (Kcal/Mol)
 Vibrational temperatures:     88.87   124.56   143.84   200.34   247.56
          (Kelvin)            264.59   308.38   313.23   432.83   478.39
                              501.51   513.82   582.78   600.14   670.54
                              709.66   788.47   822.17   871.14   894.56
                              945.81  1008.56  1047.89  1080.81  1111.36
                             1150.88  1249.44  1276.83  1383.40  1412.20
                             1446.15  1464.22  1522.30  1584.21  1626.71
                             1666.82  1697.70  1708.64  1734.70  1768.13
                             1783.96  1846.82  1904.57  1934.14  1986.64
                             2019.00  2061.09  2090.40  2128.82  2163.60
                             2171.09  2175.32  2219.05  2241.45  2371.52
                             2397.74  2443.87  2467.17  4416.98  4538.04
                             4614.04  4623.62  4627.80  4635.44  4648.60
                             4663.26  5179.63  5259.79  5472.04

 Zero-point correction=                           0.203515 (Hartree/Particle)
 Thermal correction to Energy=                    0.203515
 Thermal correction to Enthalpy=                  0.203515
 Thermal correction to Gibbs Free Energy=         0.203515
 Sum of electronic and zero-point Energies=           -647.056552
 Sum of electronic and thermal Energies=              -647.056552
 Sum of electronic and thermal Enthalpies=            -647.056552
 Sum of electronic and thermal Free Energies=         -647.056552

                     E (Thermal)             CV                S
                      KCal/Mol        Cal/Mol-Kelvin    Cal/Mol-Kelvin
 Total                  127.707              5.962            -26.603
 Electronic               0.000              0.000              0.000
 Translational            0.000              2.981            -20.975
 Rotational               0.000              2.981             -5.628
 Vibrational            127.707              0.000              0.000

 Optimization completed.
    -- Stationary point found.
 Normal termination of Gaussian 16 at Thu Jan  2 19:32:26 2020.
