 Gaussian 16, Revision A.03,
 Gaussian 16:  ES64L-G16RevA.03 25-Dec-2016

 -------------------------------------------------------------------
 #P opt freq m062x/6-311++g(d,p) geom=connectivity temperature=0.001
 -------------------------------------------------------------------

 -------------------
 Title Card Required
 -------------------
 Symbolic Z-matrix:
 Charge =  0 Multiplicity = 1

 SCF Done:  E(RM062X) =  -288.882383264     A.U. after   13 cycles
 SCF Done:  E(RM062X) =  -288.893370609     A.U. after   12 cycles
 SCF Done:  E(RM062X) =  -288.900720812     A.U. after   13 cycles
 SCF Done:  E(RM062X) =  -288.910329827     A.U. after   13 cycles
 SCF Done:  E(RM062X) =  -288.918713536     A.U. after   13 cycles
 SCF Done:  E(RM062X) =  -288.923409899     A.U. after   12 cycles
 SCF Done:  E(RM062X) =  -288.924128086     A.U. after   12 cycles
 SCF Done:  E(RM062X) =  -288.925463026     A.U. after   11 cycles
 SCF Done:  E(RM062X) =  -288.925659873     A.U. after   11 cycles
 SCF Done:  E(RM062X) =  -288.925702397     A.U. after   10 cycles
 SCF Done:  E(RM062X) =  -288.925711879     A.U. after    9 cycles
 SCF Done:  E(RM062X) =  -288.925713534     A.U. after    8 cycles
 SCF Done:  E(RM062X) =  -288.925713788     A.U. after    8 cycles
 Optimization completed.
    -- Stationary point found.
 Normal termination of Gaussian 16 at Mon Oct 14 00:03:45 2019.

 ----------------------------------------------------------------------
 #P Geom=AllCheck Guess=TCheck SCRF=Check GenChk RM062X/6-311++G(d,p) F
 req
 ----------------------------------------------------------------------

 Structure from the checkpoint file:  "9.chk"
 -------------------
 Title Card Required
 -------------------
 Charge =  0 Multiplicity = 1

                         Standard orientation:
 ---------------------------------------------------------------------
 Center     Atomic      Atomic             Coordinates (Angstroms)
 Number     Number       Type             X           Y           Z
 ---------------------------------------------------------------------
      1          6           0       -0.399281    1.519607    0.272740
      2          6           0       -0.388687    0.015463    0.011876
      3          7           0        0.797395   -0.300785   -0.809724
      4          8           0        1.975795   -0.104814   -0.033663
      5          6           0       -0.390617   -0.757958    1.334020
      6          6           0       -1.587547   -0.384330   -0.846072
      7          1           0       -1.302369    1.802749    0.818183
      8          1           0        0.466379    1.809450    0.871095
      9          1           0       -0.374275    2.067067   -0.672208
     10          1           0        0.790041   -1.304765   -0.985063
     11          1           0        2.480838    0.528538   -0.549145
     12          1           0       -0.404777   -1.836530    1.150254
     13          1           0        0.500182   -0.518701    1.916272
     14          1           0       -1.273699   -0.502729    1.925005
     15          1           0       -2.516406   -0.165474   -0.315427
     16          1           0       -1.583916    0.163783   -1.790185
     17          1           0       -1.573331   -1.456075   -1.066784
 ---------------------------------------------------------------------

 SCF Done:  E(RM062X) =  -288.925713788     A.U. after    1 cycles

 The electronic state is 1-A.
 Alpha  occ. eigenvalues --  -19.64658 -14.78245 -10.57391 -10.52798 -10.52050
 Alpha  occ. eigenvalues --  -10.51968  -1.18822  -0.96638  -0.84850  -0.78272
 Alpha  occ. eigenvalues --   -0.77891  -0.63963  -0.58920  -0.55581  -0.53794
 Alpha  occ. eigenvalues --   -0.50537  -0.49357  -0.45266  -0.44706  -0.44100
 Alpha  occ. eigenvalues --   -0.42807  -0.39874  -0.39078  -0.36822  -0.30954
 Alpha virt. eigenvalues --   -0.00328   0.01063   0.01717   0.02125   0.03531
 Alpha virt. eigenvalues --    0.03923   0.04204   0.04603   0.05598   0.07283
 Alpha virt. eigenvalues --    0.07863   0.08453   0.10294   0.10649   0.11396

 Mulliken charges:
               1
     1  C   -0.523985
     2  C   -0.145620
     3  N   -0.214612
     4  O   -0.186531
     5  C   -0.492446
     6  C   -0.480881
     7  H    0.151240
     8  H    0.171452
     9  H    0.179892
    10  H    0.272446
    11  H    0.278747
    12  H    0.153720
    13  H    0.191494
    14  H    0.155262
    15  H    0.166235
    16  H    0.178338
    17  H    0.145248
 Sum of Mulliken charges =  -0.00000

 Dipole moment (field-independent basis, Debye):
    X=             -0.6223    Y=              0.1057    Z=             -0.2693  Tot=              0.6863
 Quadrupole moment (field-independent basis, Debye-Ang):
   XX=            -38.3995   YY=            -37.8718   ZZ=            -41.2628
   XY=              2.0697   XZ=             -1.8883   YZ=              0.7922

  Exact polarizability:  66.146   1.569  61.488   0.560   0.146  60.749
 Approx polarizability:  74.492   1.686  70.852   0.349   0.825  70.173

                      1                      2                      3
                      A                      A                      A
 Frequencies --    137.1094               213.5669               266.3928
 Red. masses --      2.2388                 1.1986                 1.3444
 Frc consts  --      0.0248                 0.0322                 0.0562
 IR Inten    --      0.1083                 0.1876                 4.9939

                      4                      5                      6
                      A                      A                      A
 Frequencies --    269.2318               275.2784               329.1553
 Red. masses --      1.5469                 1.2299                 1.2807
 Frc consts  --      0.0661                 0.0549                 0.0817
 IR Inten    --      1.4041                 0.1023                63.8950

                      7                      8                      9
                      A                      A                      A
 Frequencies --    354.4688               364.6747               415.8274
 Red. masses --      2.0058                 2.1254                 2.2745
 Frc consts  --      0.1485                 0.1665                 0.2317
 IR Inten    --     25.6218                 6.8418                 0.4439

                     10                     11                     12
                      A                      A                      A
 Frequencies --    467.7437               549.0158               768.5671
 Red. masses --      2.2449                 3.3293                 3.7442
 Frc consts  --      0.2894                 0.5913                 1.3031
 IR Inten    --     27.4803                 4.8456                 2.7155

                     13                     14                     15
                      A                      A                      A
 Frequencies --    898.4684               937.8164               948.8667
 Red. masses --      2.2488                 1.6313                 1.6470
 Frc consts  --      1.0696                 0.8453                 0.8737
 IR Inten    --     30.9564                 1.4931                 2.0274

                     16                     17                     18
                      A                      A                      A
 Frequencies --    962.8490               989.2777              1042.8445
 Red. masses --      1.2101                 1.3489                 2.3466
 Frc consts  --      0.6610                 0.7778                 1.5036
 IR Inten    --      0.4198                35.0520                20.1730

                     19                     20                     21
                      A                      A                      A
 Frequencies --   1054.8373              1094.3886              1257.4501
 Red. masses --      1.5113                 1.7720                 2.2525
 Frc consts  --      0.9908                 1.2505                 2.0985
 IR Inten    --      3.9545                42.3902                18.6813

                     22                     23                     24
                      A                      A                      A
 Frequencies --   1279.2111              1306.7123              1368.5377
 Red. masses --      2.7166                 2.5015                 1.2430
 Frc consts  --      2.6191                 2.5165                 1.3716
 IR Inten    --     16.9416                 9.2786                50.4072

                     25                     26                     27
                      A                      A                      A
 Frequencies --   1397.9547              1400.4579              1426.0785
 Red. masses --      1.3339                 1.3584                 1.2478
 Frc consts  --      1.5359                 1.5697                 1.4952
 IR Inten    --     20.9192                20.7187                 4.7276

                     28                     29                     30
                      A                      A                      A
 Frequencies --   1476.1611              1489.5772              1491.4559
 Red. masses --      1.0458                 1.0452                 1.0427
 Frc consts  --      1.3426                 1.3664                 1.3666
 IR Inten    --      0.1156                 0.5292                 2.0986

                     31                     32                     33
                      A                      A                      A
 Frequencies --   1495.9413              1504.6434              1527.8567
 Red. masses --      1.0534                 1.0680                 1.0688
 Frc consts  --      1.3890                 1.4245                 1.4700
 IR Inten    --      3.0512                 6.6919                12.5203

                     34                     35                     36
                      A                      A                      A
 Frequencies --   1535.6052              3053.1253              3056.3409
 Red. masses --      1.1343                 1.0371                 1.0365
 Frc consts  --      1.5760                 5.6961                 5.7048
 IR Inten    --      3.4609                14.5565                32.1851

                     37                     38                     39
                      A                      A                      A
 Frequencies --   3064.3852              3122.6905              3128.1914
 Red. masses --      1.0357                 1.1010                 1.0996
 Frc consts  --      5.7301                 6.3255                 6.3400
 IR Inten    --      8.3443                 5.2200                36.9775

                     40                     41                     42
                      A                      A                      A
 Frequencies --   3138.6711              3145.9243              3148.0909
 Red. masses --      1.1028                 1.1026                 1.1029
 Frc consts  --      6.4010                 6.4294                 6.4398
 IR Inten    --     12.1915                 7.7304                24.6785

                     43                     44                     45
                      A                      A                      A
 Frequencies --   3152.9094              3496.8512              3900.3390
 Red. masses --      1.1012                 1.0751                 1.0684
 Frc consts  --      6.4495                 7.7456                 9.5758
 IR Inten    --     15.3118                 0.8009                68.3623

 - Thermochemistry -
 -------------------
 Temperature     0.001 Kelvin.  Pressure   1.00000 Atm.
 Atom     1 has atomic number  6 and mass  12.00000

 Molecular mass:    89.08406 amu.
 Principal axes and moments of inertia in atomic units:
                           1         2         3
     Eigenvalues --   404.30471 663.17472 664.53899
           X            0.99973   0.02281   0.00515
           Y           -0.02113   0.97571  -0.21804
           Z           -0.01000   0.21787   0.97593
 This molecule is an asymmetric top.
 Rotational symmetry number  1.
 Rotational temperatures (Kelvin)      0.21423     0.13060     0.13034
 Rotational constants (GHZ):           4.46381     2.72137     2.71578
 Zero-point vibrational energy     404969.1 (Joules/Mol)
                                   96.78993 (Kcal/Mol)
 Vibrational temperatures:    197.27   307.28   383.28   387.36   396.06
          (Kelvin)            473.58   510.00   524.69   598.28   672.98
                              789.91  1105.80  1292.70  1349.31  1365.21
                             1385.32  1423.35  1500.42  1517.68  1574.58
                             1809.19  1840.50  1880.07  1969.02  2011.35
                             2014.95  2051.81  2123.87  2143.17  2145.87
                             2152.33  2164.85  2198.24  2209.39  4392.77
                             4397.39  4408.97  4492.86  4500.77  4515.85
                             4526.28  4529.40  4536.33  5031.19  5611.72

 Zero-point correction=                           0.154245 (Hartree/Particle)
 Thermal correction to Energy=                    0.154245
 Thermal correction to Enthalpy=                  0.154245
 Thermal correction to Gibbs Free Energy=         0.154245
 Sum of electronic and zero-point Energies=           -288.771469
 Sum of electronic and thermal Energies=              -288.771469
 Sum of electronic and thermal Enthalpies=            -288.771469
 Sum of electronic and thermal Free Energies=         -288.771469

                     E (Thermal)             CV                S
                      KCal/Mol        Cal/Mol-Kelvin    Cal/Mol-Kelvin
 Total                   96.790              5.962            -34.145
 Electronic               0.000              0.000              0.000
 Translational            0.000              2.981            -23.250
 Rotational               0.000              2.981            -10.894
 Vibrational             96.790              0.000              0.000

 Optimization completed.
    -- Stationary point found.
 Normal termination of Gaussian 16 at Mon Oct 14 00:04:53 2019.
