 Gaussian 16, Revision A.03,
 Gaussian 16:  ES64L-G16RevA.03 25-Dec-2016

 -------------------------------------------------------------------
 #p opt freq m062x/6-311++g(d,p) geom=connectivity temperature=0.001
 -------------------------------------------------------------------

 -------------------
 Title Card Required
 -------------------
 Symbolic Z-matrix:
 Charge =  1 Multiplicity = 1

 SCF Done:  E(RM062X) =  -289.181202627     A.U. after   13 cycles
 SCF Done:  E(RM062X) =  -289.192555154     A.U. after   12 cycles
 SCF Done:  E(RM062X) =  -289.198248893     A.U. after   12 cycles
 SCF Done:  E(RM062X) =  -289.202734767     A.U. after   13 cycles
 SCF Done:  E(RM062X) =  -289.206175286     A.U. after   12 cycles
 SCF Done:  E(RM062X) =  -289.211909991     A.U. after   12 cycles
 SCF Done:  E(RM062X) =  -289.216333808     A.U. after   12 cycles
 SCF Done:  E(RM062X) =  -289.220065270     A.U. after   12 cycles
 SCF Done:  E(RM062X) =  -289.222499711     A.U. after   12 cycles
 SCF Done:  E(RM062X) =  -289.223352101     A.U. after   12 cycles
 SCF Done:  E(RM062X) =  -289.223554837     A.U. after   11 cycles
 SCF Done:  E(RM062X) =  -289.223628670     A.U. after   11 cycles
 SCF Done:  E(RM062X) =  -289.223669467     A.U. after   10 cycles
 SCF Done:  E(RM062X) =  -289.223675781     A.U. after   10 cycles
 SCF Done:  E(RM062X) =  -289.223677475     A.U. after    9 cycles
 SCF Done:  E(RM062X) =  -289.223677537     A.U. after    8 cycles
 SCF Done:  E(RM062X) =  -289.223677537     A.U. after    8 cycles
 Optimization completed.
    -- Stationary point found.
 Normal termination of Gaussian 16 at Mon Dec 30 16:47:32 2019.

 ----------------------------------------------------------------------
 #P Geom=AllCheck Guess=TCheck SCRF=Check GenChk RM062X/6-311++G(d,p) F
 req
 ----------------------------------------------------------------------

 Structure from the checkpoint file:  "9_p_b.chk"
 -------------------
 Title Card Required
 -------------------
 Charge =  1 Multiplicity = 1

                         Standard orientation:
 ---------------------------------------------------------------------
 Center     Atomic      Atomic             Coordinates (Angstroms)
 Number     Number       Type             X           Y           Z
 ---------------------------------------------------------------------
      1          6           0       -0.351490   -0.790214   -1.325624
      2          6           0       -0.451842    0.024526   -0.036595
      3          7           0        0.698820   -0.225400    0.868848
      4          8           0        1.965070    0.040421    0.088998
      5          6           0       -0.539317    1.521309   -0.305254
      6          6           0       -1.621006   -0.456415    0.833753
      7          1           0       -1.277856   -0.688733   -1.892784
      8          1           0        0.448183   -0.428404   -1.979573
      9          1           0       -0.212098   -1.857117   -1.122670
     10          1           0        0.771985   -1.229996    1.062872
     11          1           0        2.270214   -0.656282   -0.524349
     12          1           0       -0.603986    2.077943    0.630509
     13          1           0        0.321671    1.877880   -0.874409
     14          1           0       -1.433253    1.729146   -0.894761
     15          1           0       -2.547476   -0.249335    0.296399
     16          1           0       -1.577350   -1.532744    1.019525
     17          1           0       -1.650273    0.075175    1.785663
     18          1           0        2.659869    0.341661    0.701975
 ---------------------------------------------------------------------

 SCF Done:  E(RM062X) =  -289.223677537     A.U. after    1 cycles

 The electronic state is 1-A.
 Alpha  occ. eigenvalues --  -19.99261 -15.03525 -10.76249 -10.69532 -10.68724
 Alpha  occ. eigenvalues --  -10.67775  -1.50949  -1.21623  -1.05375  -0.96733
 Alpha  occ. eigenvalues --   -0.94975  -0.94295  -0.86256  -0.84081  -0.75099
 Alpha  occ. eigenvalues --   -0.70914  -0.68227  -0.66925  -0.62940  -0.60818
 Alpha  occ. eigenvalues --   -0.59704  -0.59139  -0.57974  -0.56314  -0.54297
 Alpha virt. eigenvalues --   -0.20136  -0.14998  -0.13197  -0.10836  -0.10234
 Alpha virt. eigenvalues --   -0.08044  -0.07838  -0.07700  -0.07181  -0.06916
 Alpha virt. eigenvalues --   -0.05976  -0.03905  -0.03727  -0.03303  -0.02775

 Mulliken charges:
               1
     1  C   -0.485518
     2  C   -0.384667
     3  N   -0.057797
     4  O   -0.077206
     5  C   -0.459176
     6  C   -0.436604
     7  H    0.225583
     8  H    0.168029
     9  H    0.195802
    10  H    0.346219
    11  H    0.360695
    12  H    0.208154
    13  H    0.182049
    14  H    0.201240
    15  H    0.216654
    16  H    0.177453
    17  H    0.214845
    18  H    0.404243
 Sum of Mulliken charges =   1.00000

 Dipole moment (field-independent basis, Debye):
    X=              5.5577    Y=             -1.8897    Z=              0.1096  Tot=              5.8712
 Quadrupole moment (field-independent basis, Debye-Ang):
   XX=            -14.1074   YY=            -33.1302   ZZ=            -34.9257
   XY=             -2.4148   XZ=              1.4960   YZ=             -0.2734

  Exact polarizability:  66.037   0.392  57.173  -1.457  -0.056  56.834
 Approx polarizability:  75.682   0.565  66.391  -1.114  -0.542  67.179

                      1                      2                      3
                      A                      A                      A
 Frequencies --    130.2712               209.7512               222.4107
 Red. masses --      2.1966                 1.1738                 1.2618
 Frc consts  --      0.0220                 0.0304                 0.0368
 IR Inten    --     11.0458                 3.1009                42.3816

                      4                      5                      6
                      A                      A                      A
 Frequencies --    260.2398               268.7239               286.8818
 Red. masses --      1.8939                 1.0716                 1.0482
 Frc consts  --      0.0756                 0.0456                 0.0508
 IR Inten    --     10.1602                 0.2213                 4.5134

                      7                      8                      9
                      A                      A                      A
 Frequencies --    343.4497               354.0425               410.1542
 Red. masses --      2.2753                 2.4392                 2.3328
 Frc consts  --      0.1581                 0.1801                 0.2312
 IR Inten    --      0.6961                 2.4363                 2.0888

                     10                     11                     12
                      A                      A                      A
 Frequencies --    454.6900               504.1354               633.4318
 Red. masses --      2.3021                 2.8226                 2.7853
 Frc consts  --      0.2804                 0.4227                 0.6584
 IR Inten    --      6.2132                43.2247               124.6767

                     13                     14                     15
                      A                      A                      A
 Frequencies --    720.3651               772.4221               872.1165
 Red. masses --      2.0018                 2.5615                 2.4152
 Frc consts  --      0.6121                 0.9004                 1.0823
 IR Inten    --    115.3177                39.7100                 7.3432

                     16                     17                     18
                      A                      A                      A
 Frequencies --    945.1256               950.2051               975.1939
 Red. masses --      1.5094                 1.6022                 1.2145
 Frc consts  --      0.7944                 0.8523                 0.6805
 IR Inten    --      0.4855                 1.7219                 1.5170

                     19                     20                     21
                      A                      A                      A
 Frequencies --    994.8433              1031.2811              1075.3122
 Red. masses --      1.2676                 1.3280                 1.3110
 Frc consts  --      0.7392                 0.8321                 0.8931
 IR Inten    --     52.5343                 2.3440                16.4627

                     22                     23                     24
                      A                      A                      A
 Frequencies --   1099.0645              1226.9908              1290.7045
 Red. masses --      1.4202                 2.3263                 2.8730
 Frc consts  --      1.0107                 2.0635                 2.8199
 IR Inten    --     10.2374                20.7062                15.6325

                     25                     26                     27
                      A                      A                      A
 Frequencies --   1305.2780              1409.1136              1414.6069
 Red. masses --      2.5751                 1.2684                 1.2841
 Frc consts  --      2.5850                 1.4838                 1.5140
 IR Inten    --      3.5847                16.0798                20.4543

                     28                     29                     30
                      A                      A                      A
 Frequencies --   1439.6187              1475.0513              1482.5602
 Red. masses --      1.2120                 1.0530                 1.0437
 Frc consts  --      1.4800                 1.3498                 1.3516
 IR Inten    --      9.6927                 3.1342                 5.7312

                     31                     32                     33
                      A                      A                      A
 Frequencies --   1485.6767              1489.0529              1510.6584
 Red. masses --      1.0426                 1.0729                 1.0613
 Frc consts  --      1.3559                 1.4017                 1.4271
 IR Inten    --      0.6869                 5.4655                11.7489

                     34                     35                     36
                      A                      A                      A
 Frequencies --   1521.4536              1525.1758              1617.2938
 Red. masses --      1.0834                 1.0886                 1.0968
 Frc consts  --      1.4776                 1.4919                 1.6903
 IR Inten    --     13.2838                19.7762               129.7209

                     37                     38                     39
                      A                      A                      A
 Frequencies --   3046.7588              3068.2349              3076.0548
 Red. masses --      1.0394                 1.0365                 1.0362
 Frc consts  --      5.6847                 5.7490                 5.7770
 IR Inten    --      9.3382                 4.2510                 2.5373

                     40                     41                     42
                      A                      A                      A
 Frequencies --   3117.3555              3146.1697              3148.3633
 Red. masses --      1.1041                 1.1002                 1.0998
 Frc consts  --      6.3216                 6.4163                 6.4232
 IR Inten    --     10.4010                 1.7399                 4.6260

                     43                     44                     45
                      A                      A                      A
 Frequencies --   3153.3098              3163.0358              3166.6032
 Red. masses --      1.1020                 1.1045                 1.1035
 Frc consts  --      6.4563                 6.5106                 6.5197
 IR Inten    --      6.2952                 0.6553                 2.5647

                     46                     47                     48
                      A                      A                      A
 Frequencies --   3452.7004              3657.8921              3777.5784
 Red. masses --      1.0775                 1.0426                 1.0902
 Frc consts  --      7.5678                 8.2190                 9.1664
 IR Inten    --     15.0118               231.6669               369.7240

 - Thermochemistry -
 -------------------
 Temperature     0.001 Kelvin.  Pressure   1.00000 Atm.
 Atom     1 has atomic number  6 and mass  12.00000

 Molecular mass:    90.09189 amu.
 Principal axes and moments of inertia in atomic units:
                           1         2         3
     Eigenvalues --   415.47588 695.08030 696.38455
           X            0.99982  -0.01144  -0.01522
           Y            0.00794  -0.47582   0.87950
           Z            0.01730   0.87947   0.47565
 This molecule is an asymmetric top.
 Rotational symmetry number  1.
 Rotational temperatures (Kelvin)      0.20847     0.12461     0.12438
 Rotational constants (GHZ):           4.34379     2.59645     2.59159
 Zero-point vibrational energy     434731.3 (Joules/Mol)
                                  103.90328 (Kcal/Mol)
 Vibrational temperatures:    187.43   301.79   320.00   374.43   386.63
          (Kelvin)            412.76   494.15   509.39   590.12   654.20
                              725.34   911.37  1036.44  1111.34  1254.78
                             1359.82  1367.13  1403.09  1431.36  1483.78
                             1547.13  1581.31  1765.37  1857.04  1878.00
                             2027.40  2035.30  2071.29  2122.27  2133.07
                             2137.56  2142.41  2173.50  2189.03  2194.39
                             2326.92  4383.61  4414.51  4425.76  4485.18
                             4526.64  4529.79  4536.91  4550.90  4556.04
                             4967.67  5262.89  5435.09

 Zero-point correction=                           0.165580 (Hartree/Particle)
 Thermal correction to Energy=                    0.165580
 Thermal correction to Enthalpy=                  0.165580
 Thermal correction to Gibbs Free Energy=         0.165580
 Sum of electronic and zero-point Energies=           -289.058097
 Sum of electronic and thermal Energies=              -289.058097
 Sum of electronic and thermal Enthalpies=            -289.058097
 Sum of electronic and thermal Free Energies=         -289.058097

                     E (Thermal)             CV                S
                      KCal/Mol        Cal/Mol-Kelvin    Cal/Mol-Kelvin
 Total                  103.903              5.962            -33.991
 Electronic               0.000              0.000              0.000
 Translational            0.000              2.981            -23.217
 Rotational               0.000              2.981            -10.774
 Vibrational            103.903              0.000              0.000

 Optimization completed.
    -- Stationary point found.
 Normal termination of Gaussian 16 at Mon Dec 30 16:48:47 2019.
