 Gaussian 16, Revision A.03,
 Gaussian 16:  ES64L-G16RevA.03 25-Dec-2016

 -------------------------------------------------------------------
 #P opt freq m062x/6-311++g(d,p) geom=connectivity temperature=0.001
 -------------------------------------------------------------------

 -------------------
 Title Card Required
 -------------------
 Symbolic Z-matrix:
 Charge =  1 Multiplicity = 1

 SCF Done:  E(RM062X) =  -289.260721347     A.U. after   12 cycles
 SCF Done:  E(RM062X) =  -289.269721183     A.U. after   12 cycles
 SCF Done:  E(RM062X) =  -289.273381513     A.U. after   11 cycles
 SCF Done:  E(RM062X) =  -289.275154808     A.U. after   12 cycles
 SCF Done:  E(RM062X) =  -289.275497377     A.U. after   10 cycles
 SCF Done:  E(RM062X) =  -289.275823352     A.U. after   10 cycles
 SCF Done:  E(RM062X) =  -289.276120931     A.U. after   11 cycles
 SCF Done:  E(RM062X) =  -289.276174669     A.U. after   10 cycles
 SCF Done:  E(RM062X) =  -289.276185116     A.U. after    9 cycles
 SCF Done:  E(RM062X) =  -289.276186318     A.U. after    8 cycles
 SCF Done:  E(RM062X) =  -289.276186559     A.U. after    8 cycles
 Optimization completed.
    -- Stationary point found.
 Normal termination of Gaussian 16 at Mon Oct 14 00:06:01 2019.

 ----------------------------------------------------------------------
 #P Geom=AllCheck Guess=TCheck SCRF=Check GenChk RM062X/6-311++G(d,p) F
 req
 ----------------------------------------------------------------------

 Structure from the checkpoint file:  "9_p.chk"
 -------------------
 Title Card Required
 -------------------
 Charge =  1 Multiplicity = 1

                         Standard orientation:
 ---------------------------------------------------------------------
 Center     Atomic      Atomic             Coordinates (Angstroms)
 Number     Number       Type             X           Y           Z
 ---------------------------------------------------------------------
      1          6           0       -0.373502    1.545875   -0.180553
      2          6           0       -0.451519    0.041309    0.044257
      3          7           0        0.827741   -0.573994   -0.545516
      4          8           0        2.026685   -0.123009   -0.003622
      5          6           0       -0.490384   -0.333672    1.517913
      6          6           0       -1.581525   -0.599993   -0.754145
      7          1           0       -1.332808    1.983747    0.098185
      8          1           0        0.380473    2.023906    0.449758
      9          1           0       -0.197744    1.798073   -1.231013
     10          1           0        0.836347   -1.583035   -0.355317
     11          1           0        2.059103    0.834643   -0.154953
     12          1           0       -0.555760   -1.416202    1.654751
     13          1           0        0.381449    0.042528    2.054155
     14          1           0       -1.381471    0.110562    1.963327
     15          1           0       -2.531867   -0.243231   -0.355378
     16          1           0       -1.545260   -0.326014   -1.812084
     17          1           0       -1.579338   -1.689431   -0.660973
     18          1           0        0.840782   -0.454626   -1.567700
 ---------------------------------------------------------------------

 SCF Done:  E(RM062X) =  -289.276186559     A.U. after    1 cycles

 The electronic state is 1-A.
 Alpha  occ. eigenvalues --  -19.89429 -15.11571 -10.79796 -10.71600 -10.71340
 Alpha  occ. eigenvalues --  -10.70348  -1.46886  -1.22827  -1.09478  -0.97908
 Alpha  occ. eigenvalues --   -0.97373  -0.90072  -0.87771  -0.83875  -0.76600
 Alpha  occ. eigenvalues --   -0.71380  -0.69386  -0.68198  -0.64553  -0.63528
 Alpha  occ. eigenvalues --   -0.62894  -0.61561  -0.60261  -0.59098  -0.58928
 Alpha virt. eigenvalues --   -0.16366  -0.13964  -0.12365  -0.11122  -0.09130
 Alpha virt. eigenvalues --   -0.08613  -0.08526  -0.07996  -0.07428  -0.06547
 Alpha virt. eigenvalues --   -0.05607  -0.04328  -0.03840  -0.03682  -0.03550

 Mulliken charges:
               1
     1  C   -0.393235
     2  C   -0.577339
     3  N   -0.258750
     4  O    0.031460
     5  C   -0.337034
     6  C   -0.406767
     7  H    0.235791
     8  H    0.183181
     9  H    0.198232
    10  H    0.409276
    11  H    0.303958
    12  H    0.187100
    13  H    0.215133
    14  H    0.221447
    15  H    0.230534
    16  H    0.186736
    17  H    0.186182
    18  H    0.384095
 Sum of Mulliken charges =   1.00000

 Dipole moment (field-independent basis, Debye):
    X=              0.4188    Y=             -0.3319    Z=             -2.0948  Tot=              2.1619
 Quadrupole moment (field-independent basis, Debye-Ang):
   XX=            -31.4898   YY=            -29.4143   ZZ=            -31.5977
   XY=              1.3653   XZ=             -2.7419   YZ=              1.2662

  Exact polarizability:  60.293   1.435  56.675   1.040   0.088  55.758
 Approx polarizability:  70.137   0.782  66.819   1.010   0.673  65.279

                      1                      2                      3
                      A                      A                      A
 Frequencies --    118.6462               215.6300               258.3369
 Red. masses --      2.1033                 1.0951                 2.4846
 Frc consts  --      0.0174                 0.0300                 0.0977
 IR Inten    --      6.0656                 1.9751                 2.7542

                      4                      5                      6
                      A                      A                      A
 Frequencies --    265.2125               268.8840               305.6421
 Red. masses --      1.1844                 1.0527                 1.1811
 Frc consts  --      0.0491                 0.0448                 0.0650
 IR Inten    --     58.1192                 6.9593                87.1611

                      7                      8                      9
                      A                      A                      A
 Frequencies --    338.7171               361.0744               408.6977
 Red. masses --      2.0819                 2.3504                 2.3139
 Frc consts  --      0.1407                 0.1805                 0.2277
 IR Inten    --      9.4797                 3.7721                 5.8929

                     10                     11                     12
                      A                      A                      A
 Frequencies --    426.8291               526.7906               733.0714
 Red. masses --      2.0082                 2.8838                 3.6926
 Frc consts  --      0.2156                 0.4715                 1.1691
 IR Inten    --     11.7489                 9.1148                 3.1522

                     13                     14                     15
                      A                      A                      A
 Frequencies --    845.1227               914.1119               950.6308
 Red. masses --      2.6192                 1.3954                 1.5042
 Frc consts  --      1.1022                 0.6870                 0.8009
 IR Inten    --      1.7683                 9.4605                 1.7954

                     16                     17                     18
                      A                      A                      A
 Frequencies --    953.3362               978.3599              1051.3933
 Red. masses --      1.5895                 1.2144                 1.5098
 Frc consts  --      0.8511                 0.6849                 0.9833
 IR Inten    --      1.4392                 0.0570                 0.1625

                     19                     20                     21
                      A                      A                      A
 Frequencies --   1071.2877              1122.6681              1210.2845
 Red. masses --      1.4123                 6.2336                 2.1537
 Frc consts  --      0.9550                 4.6291                 1.8587
 IR Inten    --      5.6882                25.2215                43.7523

                     22                     23                     24
                      A                      A                      A
 Frequencies --   1259.0805              1290.8955              1353.4827
 Red. masses --      1.4256                 2.6037                 1.5776
 Frc consts  --      1.3316                 2.5563                 1.7028
 IR Inten    --     34.1257                 7.8023                26.7183

                     25                     26                     27
                      A                      A                      A
 Frequencies --   1420.3361              1423.0726              1433.1705
 Red. masses --      1.2439                 1.3145                 1.2318
 Frc consts  --      1.4785                 1.5684                 1.4907
 IR Inten    --     20.5764                28.7933                61.9868

                     28                     29                     30
                      A                      A                      A
 Frequencies --   1464.2082              1475.2349              1479.7094
 Red. masses --      1.1989                 1.0452                 1.0457
 Frc consts  --      1.5144                 1.3402                 1.3490
 IR Inten    --     17.3107                 0.1140                 0.7298

                     31                     32                     33
                      A                      A                      A
 Frequencies --   1486.9052              1503.0255              1514.5732
 Red. masses --      1.0621                 1.1030                 1.0767
 Frc consts  --      1.3835                 1.4681                 1.4552
 IR Inten    --      2.1275                 3.4411                14.9350

                     34                     35                     36
                      A                      A                      A
 Frequencies --   1523.2503              1534.0963              1650.6047
 Red. masses --      1.0753                 1.1431                 1.0586
 Frc consts  --      1.4700                 1.5850                 1.6992
 IR Inten    --     12.6959                27.4719                48.2433

                     37                     38                     39
                      A                      A                      A
 Frequencies --   3057.2705              3060.9004              3072.3749
 Red. masses --      1.0392                 1.0381                 1.0383
 Frc consts  --      5.7231                 5.7307                 5.7744
 IR Inten    --      2.6189                 4.8327                 2.1062

                     40                     41                     42
                      A                      A                      A
 Frequencies --   3133.4155              3135.7934              3150.1421
 Red. masses --      1.1042                 1.1047                 1.1016
 Frc consts  --      6.3877                 6.4001                 6.4406
 IR Inten    --      2.8208                 5.4887                 2.6798

                     43                     44                     45
                      A                      A                      A
 Frequencies --   3154.0354              3158.3389              3167.3083
 Red. masses --      1.0995                 1.0999                 1.1034
 Frc consts  --      6.4446                 6.4642                 6.5220
 IR Inten    --      1.3791                 1.2201                 0.7467

                     46                     47                     48
                      A                      A                      A
 Frequencies --   3388.6333              3460.4567              3791.1656
 Red. masses --      1.0562                 1.0956                 1.0681
 Frc consts  --      7.1458                 7.7301                 9.0454
 IR Inten    --     42.6441                79.6297               115.8219

 - Thermochemistry -
 -------------------
 Temperature     0.001 Kelvin.  Pressure   1.00000 Atm.
 Atom     1 has atomic number  6 and mass  12.00000

 Molecular mass:    90.09189 amu.
 Principal axes and moments of inertia in atomic units:
                           1         2         3
     Eigenvalues --   418.52591 684.65409 687.85627
           X            0.99958   0.02883  -0.00340
           Y           -0.02885   0.97324  -0.22797
           Z           -0.00326   0.22797   0.97366
 This molecule is an asymmetric top.
 Rotational symmetry number  1.
 Rotational temperatures (Kelvin)      0.20695     0.12651     0.12592
 Rotational constants (GHZ):           4.31214     2.63599     2.62372
 Zero-point vibrational energy     441818.0 (Joules/Mol)
                                  105.59704 (Kcal/Mol)
 Vibrational temperatures:    170.71   310.24   371.69   381.58   386.86
          (Kelvin)            439.75   487.34   519.51   588.02   614.11
                              757.93  1054.73  1215.94  1315.20  1367.75
                             1371.64  1407.64  1512.72  1541.34  1615.27
                             1741.33  1811.54  1857.31  1947.36  2043.55
                             2047.48  2062.01  2106.67  2122.53  2128.97
                             2139.32  2162.52  2179.13  2191.62  2207.22
                             2374.85  4398.73  4403.95  4420.46  4508.29
                             4511.71  4532.35  4537.95  4544.15  4557.05
                             4875.49  4978.83  5454.64

 Zero-point correction=                           0.168280 (Hartree/Particle)
 Thermal correction to Energy=                    0.168280
 Thermal correction to Enthalpy=                  0.168280
 Thermal correction to Gibbs Free Energy=         0.168280
 Sum of electronic and zero-point Energies=           -289.107907
 Sum of electronic and thermal Energies=              -289.107907
 Sum of electronic and thermal Enthalpies=            -289.107907
 Sum of electronic and thermal Free Energies=         -289.107907

                     E (Thermal)             CV                S
                      KCal/Mol        Cal/Mol-Kelvin    Cal/Mol-Kelvin
 Total                  105.597              5.962            -34.011
 Electronic               0.000              0.000              0.000
 Translational            0.000              2.981            -23.217
 Rotational               0.000              2.981            -10.794
 Vibrational            105.597              0.000              0.000

 Optimization completed.
    -- Stationary point found.
 Normal termination of Gaussian 16 at Mon Oct 14 00:07:19 2019.
