 Gaussian 16, Revision A.03,
 Gaussian 16:  ES64L-G16RevA.03 25-Dec-2016

 -------------------------------------------------------------------
 #P opt freq m062x/6-311++g(d,p) geom=connectivity temperature=0.001
 -------------------------------------------------------------------

 -------------------
 Title Card Required
 -------------------
 Symbolic Z-matrix:
 Charge =  0 Multiplicity = 1

 SCF Done:  E(RM062X) =  -288.895064054     A.U. after   13 cycles
 SCF Done:  E(RM062X) =  -288.907113992     A.U. after   11 cycles
 SCF Done:  E(RM062X) =  -288.911010503     A.U. after   11 cycles
 SCF Done:  E(RM062X) =  -288.912193672     A.U. after   11 cycles
 SCF Done:  E(RM062X) =  -288.912505245     A.U. after   10 cycles
 SCF Done:  E(RM062X) =  -288.912529071     A.U. after   10 cycles
 SCF Done:  E(RM062X) =  -288.912534761     A.U. after    9 cycles
 SCF Done:  E(RM062X) =  -288.912535179     A.U. after    8 cycles
 SCF Done:  E(RM062X) =  -288.912535266     A.U. after    7 cycles
 SCF Done:  E(RM062X) =  -288.912535298     A.U. after    7 cycles
 Optimization completed.
    -- Stationary point found.
 Normal termination of Gaussian 16 at Sun Oct 13 21:30:22 2019.

 ----------------------------------------------------------------------
 #P Geom=AllCheck Guess=TCheck SCRF=Check GenChk RM062X/6-311++G(d,p) F
 req
 ----------------------------------------------------------------------

 Structure from the checkpoint file:  "1.chk"
 -------------------
 Title Card Required
 -------------------
 Charge =  0 Multiplicity = 1

                         Standard orientation:
 ---------------------------------------------------------------------
 Center     Atomic      Atomic             Coordinates (Angstroms)
 Number     Number       Type             X           Y           Z
 ---------------------------------------------------------------------
      1          6           0       -2.461994   -0.038252   -0.339389
      2          6           0       -1.210428   -0.642755    0.275055
      3          7           0       -0.000007   -0.007337   -0.231302
      4          8           0        0.000024    1.343755    0.176398
      5          6           0        1.210414   -0.642799    0.275029
      6          6           0        2.461975   -0.038260   -0.339389
      7          1           0       -3.352719   -0.541353    0.041443
      8          1           0       -2.532988    1.023330   -0.103713
      9          1           0       -2.433419   -0.145649   -1.424622
     10          1           0       -1.244629   -0.568373    1.378892
     11          1           0       -1.138022   -1.703571    0.023262
     12          1           0        0.000159    1.345063    1.149648
     13          1           0        1.244610   -0.568465    1.378869
     14          1           0        1.137998   -1.703600    0.023189
     15          1           0        3.352707   -0.541395    0.041379
     16          1           0        2.433370   -0.145565   -1.424630
     17          1           0        2.532985    1.023300   -0.103620
 ---------------------------------------------------------------------

 SCF Done:  E(RM062X) =  -288.912535298     A.U. after    1 cycles

 The electronic state is 1-A.
 Alpha  occ. eigenvalues --  -19.64939 -14.79136 -10.56708 -10.56707 -10.52250
 Alpha  occ. eigenvalues --  -10.52249  -1.19930  -0.96719  -0.87077  -0.80382
 Alpha  occ. eigenvalues --   -0.70227  -0.69850  -0.57477  -0.56682  -0.56646
 Alpha  occ. eigenvalues --   -0.51590  -0.47876  -0.47104  -0.44363  -0.43328
 Alpha  occ. eigenvalues --   -0.41724  -0.40724  -0.40606  -0.37088  -0.30307
 Alpha virt. eigenvalues --   -0.00449   0.01068   0.01175   0.01813   0.03296
 Alpha virt. eigenvalues --    0.03826   0.04098   0.04654   0.06204   0.06252
 Alpha virt. eigenvalues --    0.07577   0.08347   0.09230   0.09996   0.11053

 Mulliken charges:
               1
     1  C   -0.489229
     2  C   -0.310677
     3  N   -0.090964
     4  O   -0.111981
     5  C   -0.310649
     6  C   -0.489245
     7  H    0.142428
     8  H    0.168690
     9  H    0.176188
    10  H    0.157037
    11  H    0.150273
    12  H    0.213519
    13  H    0.157033
    14  H    0.150278
    15  H    0.142432
    16  H    0.176191
    17  H    0.168675
 Sum of Mulliken charges =  -0.00000

 Dipole moment (field-independent basis, Debye):
    X=              0.0002    Y=             -1.5974    Z=              1.8786  Tot=              2.4660
 Quadrupole moment (field-independent basis, Debye-Ang):
   XX=            -37.9480   YY=            -40.4681   ZZ=            -39.0914
   XY=              0.0002   XZ=              0.0003   YZ=              2.2623

  Exact polarizability:  72.920   0.000  60.310   0.000   0.644  59.688
 Approx polarizability:  70.201   0.000  73.863   0.000   1.551  74.072

                      1                      2                      3
                      A                      A                      A
 Frequencies --    111.7032               131.1601               208.1707
 Red. masses --      2.7350                 1.4062                 1.3329
 Frc consts  --      0.0201                 0.0143                 0.0340
 IR Inten    --      0.5280                 0.0991                 1.1377

                      4                      5                      6
                      A                      A                      A
 Frequencies --    220.0323               252.0728               354.5920
 Red. masses --      1.9557                 1.3193                 3.1181
 Frc consts  --      0.0558                 0.0494                 0.2310
 IR Inten    --      1.5581                 0.0030                 5.3225

                      7                      8                      9
                      A                      A                      A
 Frequencies --    433.3919               435.3496               480.6790
 Red. masses --      1.1128                 3.0809                 2.2804
 Frc consts  --      0.1231                 0.3440                 0.3104
 IR Inten    --    105.3600                 0.0372                 4.0630

                     10                     11                     12
                      A                      A                      A
 Frequencies --    564.2667               807.4630               808.6644
 Red. masses --      2.6411                 2.6242                 1.1281
 Frc consts  --      0.4954                 1.0081                 0.4346
 IR Inten    --     30.2540                16.0958                 0.1510

                     13                     14                     15
                      A                      A                      A
 Frequencies --    832.3546               967.3299               989.5261
 Red. masses --      1.1910                 2.2035                 2.1868
 Frc consts  --      0.4862                 1.2148                 1.2616
 IR Inten    --      3.5325                 0.4479                19.5710

                     16                     17                     18
                      A                      A                      A
 Frequencies --   1091.6600              1107.7149              1109.8673
 Red. masses --      1.7819                 2.9477                 1.8157
 Frc consts  --      1.2512                 2.1310                 1.3177
 IR Inten    --     14.7421                 1.7636                 8.4300

                     19                     20                     21
                      A                      A                      A
 Frequencies --   1177.2910              1213.3208              1218.3557
 Red. masses --      1.8222                 2.8956                 2.1376
 Frc consts  --      1.4880                 2.5116                 1.8695
 IR Inten    --     12.4180                 2.9418                 4.6392

                     22                     23                     24
                      A                      A                      A
 Frequencies --   1309.1568              1318.5333              1388.2715
 Red. masses --      1.1356                 1.1185                 1.5083
 Frc consts  --      1.1467                 1.1457                 1.7127
 IR Inten    --      0.7911                 4.7086                12.6592

                     25                     26                     27
                      A                      A                      A
 Frequencies --   1397.1135              1415.2095              1422.8046
 Red. masses --      1.2449                 1.3665                 1.2512
 Frc consts  --      1.4316                 1.6126                 1.4924
 IR Inten    --      1.1681                29.5202                31.5161

                     28                     29                     30
                      A                      A                      A
 Frequencies --   1441.1345              1484.0177              1490.7101
 Red. masses --      1.4287                 1.0738                 1.0385
 Frc consts  --      1.7482                 1.3933                 1.3597
 IR Inten    --     26.9141                 2.6807                21.9901

                     31                     32                     33
                      A                      A                      A
 Frequencies --   1491.1561              1498.0258              1514.3114
 Red. masses --      1.0419                 1.0652                 1.0688
 Frc consts  --      1.3650                 1.4084                 1.4440
 IR Inten    --      1.0980                 0.8273                 0.5565

                     34                     35                     36
                      A                      A                      A
 Frequencies --   1518.5993              2931.0477              2940.9461
 Red. masses --      1.0825                 1.0732                 1.0719
 Frc consts  --      1.4708                 5.4325                 5.4626
 IR Inten    --     15.1431                 2.8991               131.6764

                     37                     38                     39
                      A                      A                      A
 Frequencies --   3076.1552              3076.6457              3098.1167
 Red. masses --      1.0358                 1.0357                 1.0880
 Frc consts  --      5.7746                 5.7761                 6.1529
 IR Inten    --     37.2418                 2.7661                 0.2721

                     40                     41                     42
                      A                      A                      A
 Frequencies --   3110.2291              3150.1087              3150.2133
 Red. masses --      1.0882                 1.1027                 1.1026
 Frc consts  --      6.2020                 6.4468                 6.4468
 IR Inten    --     24.1007                10.7573                25.2345

                     43                     44                     45
                      A                      A                      A
 Frequencies --   3163.6068              3164.4186              3674.0397
 Red. masses --      1.1026                 1.1023                 1.0666
 Frc consts  --      6.5019                 6.5033                 8.4830
 IR Inten    --      0.0584                27.0506                 1.4363

 - Thermochemistry -
 -------------------
 Temperature     0.001 Kelvin.  Pressure   1.00000 Atm.
 Atom     1 has atomic number  6 and mass  12.00000

 Molecular mass:    89.08406 amu.
 Principal axes and moments of inertia in atomic units:
                           1         2         3
     Eigenvalues --   231.86804 889.164371013.20278
           X            1.00000   0.00000   0.00000
           Y           -0.00000   1.00000   0.00089
           Z           -0.00000  -0.00089   1.00000
 This molecule is an asymmetric top.
 Rotational symmetry number  1.
 Rotational temperatures (Kelvin)      0.37355     0.09741     0.08549
 Rotational constants (GHZ):           7.78348     2.02970     1.78122
 Zero-point vibrational energy     405172.4 (Joules/Mol)
                                   96.83853 (Kcal/Mol)
 Vibrational temperatures:    160.72   188.71   299.51   316.58   362.68
          (Kelvin)            510.18   623.55   626.37   691.59   811.85
                             1161.76  1163.49  1197.57  1391.77  1423.71
                             1570.66  1593.75  1596.85  1693.86  1745.70
                             1752.94  1883.58  1897.08  1997.41  2010.13
                             2036.17  2047.10  2073.47  2135.17  2144.80
                             2145.44  2155.32  2178.76  2184.93  4217.12
                             4231.37  4425.90  4426.61  4457.50  4474.93
                             4532.30  4532.45  4551.72  4552.89  5286.12

 Zero-point correction=                           0.154322 (Hartree/Particle)
 Thermal correction to Energy=                    0.154322
 Thermal correction to Enthalpy=                  0.154322
 Thermal correction to Gibbs Free Energy=         0.154322
 Sum of electronic and zero-point Energies=           -288.758213
 Sum of electronic and thermal Energies=              -288.758213
 Sum of electronic and thermal Enthalpies=            -288.758213
 Sum of electronic and thermal Free Energies=         -288.758213

                     E (Thermal)             CV                S
                      KCal/Mol        Cal/Mol-Kelvin    Cal/Mol-Kelvin
 Total                   96.839              5.962            -33.987
 Electronic               0.000              0.000              0.000
 Translational            0.000              2.981            -23.250
 Rotational               0.000              2.981            -10.736
 Vibrational             96.839              0.000              0.000

 Optimization completed.
    -- Stationary point found.
 Normal termination of Gaussian 16 at Sun Oct 13 21:31:25 2019.
