 Gaussian 16, Revision A.03,
 Gaussian 16:  ES64L-G16RevA.03 25-Dec-2016

 -------------------------------------------------------------------
 #P opt freq m062x/6-311++g(d,p) geom=connectivity temperature=0.001
 -------------------------------------------------------------------

 -------------------
 Title Card Required
 -------------------
 Symbolic Z-matrix:
 Charge =  0 Multiplicity = 1

 SCF Done:  E(RM062X) =  -362.697533844     A.U. after   14 cycles
 SCF Done:  E(RM062X) =  -362.705571851     A.U. after   12 cycles
 SCF Done:  E(RM062X) =  -362.707215758     A.U. after   12 cycles
 SCF Done:  E(RM062X) =  -362.709204619     A.U. after   13 cycles
 SCF Done:  E(RM062X) =  -362.710363411     A.U. after   14 cycles
 SCF Done:  E(RM062X) =  -362.712304954     A.U. after   12 cycles
 SCF Done:  E(RM062X) =  -362.713243817     A.U. after   12 cycles
 SCF Done:  E(RM062X) =  -362.714253345     A.U. after   12 cycles
 SCF Done:  E(RM062X) =  -362.714672128     A.U. after   12 cycles
 SCF Done:  E(RM062X) =  -362.714821179     A.U. after   11 cycles
 SCF Done:  E(RM062X) =  -362.714862585     A.U. after   12 cycles
 SCF Done:  E(RM062X) =  -362.714891814     A.U. after   10 cycles
 SCF Done:  E(RM062X) =  -362.714906571     A.U. after   11 cycles
 SCF Done:  E(RM062X) =  -362.714914627     A.U. after   11 cycles
 SCF Done:  E(RM062X) =  -362.714920558     A.U. after   11 cycles
 SCF Done:  E(RM062X) =  -362.714922473     A.U. after   10 cycles
 SCF Done:  E(RM062X) =  -362.714922824     A.U. after    8 cycles
 Optimization completed.
    -- Stationary point found.
 Normal termination of Gaussian 16 at Sun Oct 13 19:33:08 2019.

 ----------------------------------------------------------------------
 #P Geom=AllCheck Guess=TCheck SCRF=Check GenChk RM062X/6-311++G(d,p) F
 req
 ----------------------------------------------------------------------

 Structure from the checkpoint file:  "10.chk"
 -------------------
 Title Card Required
 -------------------
 Charge =  0 Multiplicity = 1

                         Standard orientation:
 ---------------------------------------------------------------------
 Center     Atomic      Atomic             Coordinates (Angstroms)
 Number     Number       Type             X           Y           Z
 ---------------------------------------------------------------------
      1          8           0       -2.688017    0.429669   -0.194813
      2          7           0       -1.822363   -0.621158    0.159687
      3          6           0       -0.456909   -0.264231    0.050100
      4          6           0       -0.034038    1.062187    0.045415
      5          6           0        1.328221    1.346769    0.006503
      6          6           0        2.270904    0.327214   -0.030075
      7          6           0        1.838929   -0.997492   -0.028133
      8          6           0        0.485584   -1.295862    0.013110
      9          1           0       -3.215842    0.571631    0.596148
     10          1           0       -2.043071   -1.394717   -0.459311
     11          1           0       -0.767559    1.856050    0.056857
     12          1           0        1.650285    2.381593   -0.000588
     13          1           0        3.328288    0.557924   -0.062278
     14          1           0        2.560916   -1.805040   -0.058124
     15          1           0        0.151521   -2.328197    0.026480
 ---------------------------------------------------------------------

 SCF Done:  E(RM062X) =  -362.714922824     A.U. after    1 cycles

 The electronic state is 1-A.
 Alpha  occ. eigenvalues --  -19.66837 -14.81039 -10.58437 -10.54564 -10.54371
 Alpha  occ. eigenvalues --  -10.54364 -10.53821 -10.53627  -1.21612  -0.99351
 Alpha  occ. eigenvalues --   -0.93312  -0.84586  -0.82007  -0.70046  -0.68491
 Alpha  occ. eigenvalues --   -0.61624  -0.60877  -0.57063  -0.54259  -0.51022
 Alpha  occ. eigenvalues --   -0.50749  -0.48955  -0.45011  -0.42299  -0.40634
 Alpha  occ. eigenvalues --   -0.39667  -0.37185  -0.30945  -0.27175
 Alpha virt. eigenvalues --   -0.00457   0.00596   0.00876   0.01681   0.02327
 Alpha virt. eigenvalues --    0.02929   0.03172   0.04659   0.05977   0.06612
 Alpha virt. eigenvalues --    0.07887   0.09694   0.09888   0.11993   0.12235

 Mulliken charges:
               1
     1  O   -0.169976
     2  N   -0.291220
     3  C   -0.220045
     4  C    0.102614
     5  C   -0.144173
     6  C   -0.324603
     7  C   -0.190554
     8  C   -0.277431
     9  H    0.284643
    10  H    0.275459
    11  H    0.195619
    12  H    0.204777
    13  H    0.176434
    14  H    0.201629
    15  H    0.176826
 Sum of Mulliken charges =  -0.00000

 Dipole moment (field-independent basis, Debye):
    X=             -0.5663    Y=             -0.6066    Z=              0.4152  Tot=              0.9279
 Quadrupole moment (field-independent basis, Debye-Ang):
   XX=            -40.8400   YY=            -41.7916   ZZ=            -51.7035
   XY=              0.5768   XZ=             -2.8479   YZ=              2.6406

  Exact polarizability: 104.685   0.531  86.636  -1.877   0.605  48.791
 Approx polarizability: 124.996   0.494 115.293  -2.688   0.795  63.082

                      1                      2                      3
                      A                      A                      A
 Frequencies --     86.9536               204.0624               259.5787
 Red. masses --      3.8937                 3.6715                 4.2084
 Frc consts  --      0.0173                 0.0901                 0.1671
 IR Inten    --      0.7042                 5.9800                 1.2610

                      4                      5                      6
                      A                      A                      A
 Frequencies --    376.7234               414.6724               448.8331
 Red. masses --      1.3157                 2.9900                 3.7257
 Frc consts  --      0.1100                 0.3029                 0.4422
 IR Inten    --     79.5337                 0.2642                 8.5751

                      7                      8                      9
                      A                      A                      A
 Frequencies --    505.6188               598.2432               628.1879
 Red. masses --      2.6075                 5.5341                 6.3961
 Frc consts  --      0.3927                 1.1670                 1.4871
 IR Inten    --     38.7705                 9.6952                 0.2045

                     10                     11                     12
                      A                      A                      A
 Frequencies --    703.9898               736.0895               786.1096
 Red. masses --      2.4145                 1.7205                 2.3005
 Frc consts  --      0.7050                 0.5493                 0.8376
 IR Inten    --     26.7450               115.5785                98.5068

                     13                     14                     15
                      A                      A                      A
 Frequencies --    850.4698               892.5229               925.1603
 Red. masses --      1.2687                 1.7608                 1.6122
 Frc consts  --      0.5407                 0.8264                 0.8130
 IR Inten    --      0.3781                51.0591                38.3620

                     16                     17                     18
                      A                      A                      A
 Frequencies --    992.7026              1009.3396              1012.8250
 Red. masses --      1.3512                 1.2951                 5.2276
 Frc consts  --      0.7845                 0.7774                 3.1595
 IR Inten    --      0.1290                 0.1247                 0.0557

                     19                     20                     21
                      A                      A                      A
 Frequencies --   1057.7404              1089.8102              1126.5123
 Red. masses --      2.1648                 2.6033                 1.8238
 Frc consts  --      1.4270                 1.8217                 1.3637
 IR Inten    --      8.1149                33.4675                 6.7365

                     22                     23                     24
                      A                      A                      A
 Frequencies --   1175.1085              1194.8368              1275.8326
 Red. masses --      1.1331                 1.1228                 2.7941
 Frc consts  --      0.9219                 0.9445                 2.6797
 IR Inten    --      1.7120                 2.0980                 9.5610

                     25                     26                     27
                      A                      A                      A
 Frequencies --   1333.8241              1347.7941              1399.7893
 Red. masses --      2.6763                 1.7315                 1.2910
 Frc consts  --      2.8053                 1.8532                 1.4904
 IR Inten    --      0.8808                 0.4085                86.0167

                     28                     29                     30
                      A                      A                      A
 Frequencies --   1477.1983              1528.8196              1538.5197
 Red. masses --      1.6457                 1.4657                 2.5134
 Frc consts  --      2.1158                 2.0184                 3.5052
 IR Inten    --      0.2653                11.6042                58.4235

                     31                     32                     33
                      A                      A                      A
 Frequencies --   1667.6726              1678.2997              3192.9891
 Red. masses --      5.8402                 6.0548                 1.0878
 Frc consts  --      9.5698                10.0483                 6.5345
 IR Inten    --      1.6658                63.7618                 5.2957

                     34                     35                     36
                      A                      A                      A
 Frequencies --   3205.8996              3214.1469              3229.4058
 Red. masses --      1.0879                 1.0932                 1.0975
 Frc consts  --      6.5877                 6.6542                 6.7435
 IR Inten    --      0.3291                12.7934                 8.5998

                     37                     38                     39
                      A                      A                      A
 Frequencies --   3249.9595              3553.9809              3880.4335
 Red. masses --      1.0928                 1.0758                 1.0685
 Frc consts  --      6.8009                 8.0062                 9.4795
 IR Inten    --      0.5805                19.6644                89.9890

 - Thermochemistry -
 -------------------
 Temperature     0.001 Kelvin.  Pressure   1.00000 Atm.
 Atom     1 has atomic number  8 and mass  15.99491

 Molecular mass:   109.05276 amu.
 Principal axes and moments of inertia in atomic units:
                           1         2         3
     Eigenvalues --   357.211571172.772021518.51279
           X            0.99999   0.00175  -0.00417
           Y           -0.00170   0.99994   0.01119
           Z            0.00419  -0.01119   0.99993
 This molecule is an asymmetric top.
 Rotational symmetry number  1.
 Rotational temperatures (Kelvin)      0.24247     0.07385     0.05704
 Rotational constants (GHZ):           5.05230     1.53887     1.18849
 Zero-point vibrational energy     322098.4 (Joules/Mol)
                                   76.98338 (Kcal/Mol)
 Vibrational temperatures:    125.11   293.60   373.48   542.02   596.62
          (Kelvin)            645.77   727.47   860.74   903.82  1012.88
                             1059.07  1131.04  1223.64  1284.14  1331.10
                             1428.28  1452.21  1457.23  1521.85  1567.99
                             1620.80  1690.72  1719.10  1835.64  1919.08
                             1939.18  2013.98  2125.36  2199.63  2213.59
                             2399.41  2414.70  4594.00  4612.57  4624.44
                             4646.39  4675.97  5113.39  5583.08

 Zero-point correction=                           0.122681 (Hartree/Particle)
 Thermal correction to Energy=                    0.122681
 Thermal correction to Enthalpy=                  0.122681
 Thermal correction to Gibbs Free Energy=         0.122681
 Sum of electronic and zero-point Energies=           -362.592242
 Sum of electronic and thermal Energies=              -362.592242
 Sum of electronic and thermal Enthalpies=            -362.592242
 Sum of electronic and thermal Free Energies=         -362.592242

                     E (Thermal)             CV                S
                      KCal/Mol        Cal/Mol-Kelvin    Cal/Mol-Kelvin
 Total                   76.983              5.962            -32.277
 Electronic               0.000              0.000              0.000
 Translational            0.000              2.981            -22.647
 Rotational               0.000              2.981             -9.630
 Vibrational             76.983              0.000              0.000

 Optimization completed.
    -- Stationary point found.
 Normal termination of Gaussian 16 at Sun Oct 13 19:34:14 2019.
