 Gaussian 16, Revision A.03,
 Gaussian 16:  ES64L-G16RevA.03 25-Dec-2016

 -------------------------------------------------------------------
 #p opt freq m062x/6-311++g(d,p) geom=connectivity temperature=0.001
 -------------------------------------------------------------------

 -------------------
 Title Card Required
 -------------------
 Symbolic Z-matrix:
 Charge =  1 Multiplicity = 1

 SCF Done:  E(RM062X) =  -362.970226609     A.U. after   14 cycles
 SCF Done:  E(RM062X) =  -362.986231952     A.U. after   13 cycles
 SCF Done:  E(RM062X) =  -362.988825215     A.U. after   12 cycles
 SCF Done:  E(RM062X) =  -362.989354314     A.U. after   12 cycles
 SCF Done:  E(RM062X) =  -362.989802676     A.U. after   12 cycles
 SCF Done:  E(RM062X) =  -362.991922763     A.U. after   15 cycles
 SCF Done:  E(RM062X) =  -362.992296179     A.U. after   16 cycles
 SCF Done:  E(RM062X) =  -362.996517454     A.U. after   12 cycles
 SCF Done:  E(RM062X) =  -363.002212377     A.U. after   15 cycles
 SCF Done:  E(RM062X) =  -363.005014833     A.U. after   13 cycles
 SCF Done:  E(RM062X) =  -363.045409417     A.U. after   13 cycles
 SCF Done:  E(RM062X) =  -363.045504170     A.U. after   13 cycles
 SCF Done:  E(RM062X) =  -363.045574135     A.U. after   12 cycles
 SCF Done:  E(RM062X) =  -363.045619232     A.U. after   13 cycles
 SCF Done:  E(RM062X) =  -363.045643347     A.U. after   12 cycles
 SCF Done:  E(RM062X) =  -363.045650026     A.U. after   11 cycles
 SCF Done:  E(RM062X) =  -363.045652209     A.U. after   11 cycles
 SCF Done:  E(RM062X) =  -363.045653348     A.U. after   10 cycles
 SCF Done:  E(RM062X) =  -363.045653791     A.U. after   10 cycles
 Optimization completed.
    -- Stationary point found.
 Normal termination of Gaussian 16 at Mon Dec 30 16:55:54 2019.

 ----------------------------------------------------------------------
 #P Geom=AllCheck Guess=TCheck SCRF=Check GenChk RM062X/6-311++G(d,p) F
 req
 ----------------------------------------------------------------------

 Structure from the checkpoint file:  "10_p_b.chk"
 -------------------
 Title Card Required
 -------------------
 Charge =  1 Multiplicity = 1

                         Standard orientation:
 ---------------------------------------------------------------------
 Center     Atomic      Atomic             Coordinates (Angstroms)
 Number     Number       Type             X           Y           Z
 ---------------------------------------------------------------------
      1          8           0       -3.403743   -0.428551   -0.000842
      2          7           0       -1.125281    1.459483    0.000940
      3          6           0       -0.112031    0.668564    0.000542
      4          6           0        1.210365    1.287560   -0.000354
      5          6           0        2.329092    0.505885   -0.000768
      6          6           0        2.173584   -0.895232   -0.000360
      7          6           0        0.916299   -1.543660    0.000565
      8          6           0       -0.219131   -0.790285    0.000861
      9          1           0       -3.980750   -0.532188    0.763124
     10          1           0       -2.015684    0.932002    0.001468
     11          1           0        1.243817    2.371703   -0.000791
     12          1           0        3.321310    0.937880   -0.001392
     13          1           0        3.067724   -1.512177   -0.000775
     14          1           0        0.874434   -2.625230    0.000980
     15          1           0       -1.215511   -1.223564    0.001623
     16          1           0       -3.977502   -0.533387   -0.766996
 ---------------------------------------------------------------------

 SCF Done:  E(RM062X) =  -363.045653791     A.U. after    1 cycles

 The electronic state is 1-A.
 Alpha  occ. eigenvalues --  -19.78414 -14.96397 -10.79272 -10.78926 -10.77287
 Alpha  occ. eigenvalues --  -10.77114 -10.74818 -10.74663  -1.29443  -1.23408
 Alpha  occ. eigenvalues --   -1.15132  -1.06305  -1.00885  -0.90157  -0.87331
 Alpha  occ. eigenvalues --   -0.79736  -0.76831  -0.76659  -0.73026  -0.70246
 Alpha  occ. eigenvalues --   -0.69420  -0.66069  -0.65024  -0.62848  -0.61349
 Alpha  occ. eigenvalues --   -0.56669  -0.56331  -0.53428  -0.52153
 Alpha virt. eigenvalues --   -0.31055  -0.16903  -0.14044  -0.12689  -0.11374
 Alpha virt. eigenvalues --   -0.09721  -0.08726  -0.08267  -0.07848  -0.06824
 Alpha virt. eigenvalues --   -0.06154  -0.04820  -0.04203  -0.03763  -0.03051

 Mulliken charges:
               1
     1  O   -0.631095
     2  N   -0.009841
     3  C   -0.593120
     4  C   -0.230973
     5  C   -0.193356
     6  C   -0.115279
     7  C   -0.191499
     8  C    0.483140
     9  H    0.322715
    10  H    0.345026
    11  H    0.311604
    12  H    0.281009
    13  H    0.282850
    14  H    0.282704
    15  H    0.333437
    16  H    0.322680
 Sum of Mulliken charges =   1.00000

 Dipole moment (field-independent basis, Debye):
    X=              0.3850    Y=             -2.1747    Z=             -0.0031  Tot=              2.2085
 Quadrupole moment (field-independent basis, Debye-Ang):
   XX=             -4.6465   YY=            -37.5101   ZZ=            -45.1350
   XY=              2.9640   XZ=              0.0026   YZ=              0.0011

  Exact polarizability: 108.312 -11.071  87.640  -0.025  -0.003  42.778
 Approx polarizability: 137.947 -24.118 117.697  -0.038   0.001  55.609

                      1                      2                      3
                      A                      A                      A
 Frequencies --     53.0375                91.4654               145.7219
 Red. masses --      3.4719                 4.8496                 2.2593
 Frc consts  --      0.0058                 0.0239                 0.0283
 IR Inten    --      3.3569                 1.0550                 0.1933

                      4                      5                      6
                      A                      A                      A
 Frequencies --    178.8285               202.6271               306.1422
 Red. masses --      5.8791                 1.2760                 1.6732
 Frc consts  --      0.1108                 0.0309                 0.0924
 IR Inten    --     10.3525                10.3385                16.6258

                      7                      8                      9
                      A                      A                      A
 Frequencies --    359.8197               382.3514               397.1320
 Red. masses --      1.7077                 1.1913                 2.9098
 Frc consts  --      0.1303                 0.1026                 0.2704
 IR Inten    --     37.0274               229.6490                 0.1659

                     10                     11                     12
                      A                      A                      A
 Frequencies --    439.9249               530.9912               594.8943
 Red. masses --      3.8777                 6.8540                 6.5667
 Frc consts  --      0.4422                 1.1386                 1.3692
 IR Inten    --     21.4118                 0.5930                 2.0307

                     13                     14                     15
                      A                      A                      A
 Frequencies --    616.6985               809.4924               825.7723
 Red. masses --      1.8759                 5.0273                 1.5252
 Frc consts  --      0.4203                 1.9409                 0.6128
 IR Inten    --     50.7799                10.3107                16.6898

                     16                     17                     18
                      A                      A                      A
 Frequencies --    828.5621               995.9073              1011.4616
 Red. masses --      1.3253                 5.5309                 1.1679
 Frc consts  --      0.5361                 3.2321                 0.7040
 IR Inten    --     28.6342                 1.4556                36.7397

                     19                     20                     21
                      A                      A                      A
 Frequencies --   1016.7773              1037.6851              1064.0661
 Red. masses --      2.4420                 1.2802                 1.4457
 Frc consts  --      1.4874                 0.8122                 0.9644
 IR Inten    --      2.7454                 4.6144                 0.4158

                     22                     23                     24
                      A                      A                      A
 Frequencies --   1086.4712              1113.9312              1191.3539
 Red. masses --      1.3360                 1.5525                 1.2371
 Frc consts  --      0.9292                 1.1350                 1.0345
 IR Inten    --     43.0025                 8.6007                43.5400

                     25                     26                     27
                      A                      A                      A
 Frequencies --   1201.7411              1219.7255              1373.6697
 Red. masses --      1.1215                 1.2156                 1.3063
 Frc consts  --      0.9542                 1.0655                 1.4523
 IR Inten    --     29.0948                39.7637                17.8333

                     28                     29                     30
                      A                      A                      A
 Frequencies --   1442.4101              1474.2468              1479.7552
 Red. masses --      1.7543                 2.4262                 4.8366
 Frc consts  --      2.1505                 3.1068                 6.2398
 IR Inten    --     52.8121                12.1261               219.0618

                     31                     32                     33
                      A                      A                      A
 Frequencies --   1588.6759              1632.9828              1641.9443
 Red. masses --      3.3891                 7.4819                 1.0855
 Frc consts  --      5.0397                11.7550                 1.7242
 IR Inten    --     10.2935                 4.4071                97.4449

                     34                     35                     36
                      A                      A                      A
 Frequencies --   1679.8162              3200.8391              3204.2500
 Red. masses --      5.8666                 1.0945                 1.0929
 Frc consts  --      9.7535                 6.6067                 6.6113
 IR Inten    --    250.3543                23.9933                 8.9879

                     37                     38                     39
                      A                      A                      A
 Frequencies --   3224.6146              3237.6234              3240.6678
 Red. masses --      1.0926                 1.0966                 1.0996
 Frc consts  --      6.6937                 6.7724                 6.8038
 IR Inten    --      8.8583                 9.7772                 5.7330

                     40                     41                     42
                      A                      A                      A
 Frequencies --   3326.8130              3856.6444              3945.9426
 Red. masses --      1.0783                 1.0455                 1.0825
 Frc consts  --      7.0312                 9.1625                 9.9304
 IR Inten    --    498.9646                80.0258               146.7483

 - Thermochemistry -
 -------------------
 Temperature     0.001 Kelvin.  Pressure   1.00000 Atm.
 Atom     1 has atomic number  8 and mass  15.99491

 Molecular mass:   110.06059 amu.
 Principal axes and moments of inertia in atomic units:
                           1         2         3
     Eigenvalues --   452.339201481.236071925.14856
           X            0.99995   0.01049   0.00000
           Y           -0.01049   0.99995  -0.00002
           Z           -0.00000   0.00002   1.00000
 This molecule is an asymmetric top.
 Rotational symmetry number  1.
 Warning -- assumption of classical behavior for rotation
           may cause significant error
 Rotational temperatures (Kelvin)      0.19148     0.05847     0.04499
 Rotational constants (GHZ):           3.98980     1.21840     0.93746
 Zero-point vibrational energy     342451.8 (Joules/Mol)
                                   81.84795 (Kcal/Mol)
 Vibrational temperatures:     76.31   131.60   209.66   257.29   291.54
          (Kelvin)            440.47   517.70   550.12   571.38   632.95
                              763.98   855.92   887.29  1164.68  1188.10
                             1192.12  1432.89  1455.27  1462.92  1493.00
                             1530.95  1563.19  1602.70  1714.09  1729.04
                             1754.91  1976.40  2075.31  2121.11  2129.04
                             2285.75  2349.50  2362.39  2416.88  4605.29
                             4610.20  4639.50  4658.22  4662.60  4786.54
                             5548.85  5677.33

 Zero-point correction=                           0.130433 (Hartree/Particle)
 Thermal correction to Energy=                    0.130433
 Thermal correction to Enthalpy=                  0.130433
 Thermal correction to Gibbs Free Energy=         0.130433
 Sum of electronic and zero-point Energies=           -362.915221
 Sum of electronic and thermal Energies=              -362.915221
 Sum of electronic and thermal Enthalpies=            -362.915221
 Sum of electronic and thermal Free Energies=         -362.915221

                     E (Thermal)             CV                S
                      KCal/Mol        Cal/Mol-Kelvin    Cal/Mol-Kelvin
 Total                   81.848              5.962            -31.547
 Electronic               0.000              0.000              0.000
 Translational            0.000              2.981            -22.620
 Rotational               0.000              2.981             -8.928
 Vibrational             81.848              0.000              0.000

                           ! Non-Optimized Parameters !
 Normal termination of Gaussian 16 at Mon Dec 30 16:57:03 2019.
