 Gaussian 16, Revision A.03,
 Gaussian 16:  ES64L-G16RevA.03 25-Dec-2016

 -------------------------------------------------------------------
 #P opt freq m062x/6-311++g(d,p) geom=connectivity temperature=0.001
 -------------------------------------------------------------------

 -------------------
 Title Card Required
 -------------------
 Symbolic Z-matrix:
 Charge =  1 Multiplicity = 1

 SCF Done:  E(RM062X) =  -363.015069870     A.U. after   14 cycles
 SCF Done:  E(RM062X) =  -363.041314807     A.U. after   13 cycles
 SCF Done:  E(RM062X) =  -363.044326119     A.U. after   13 cycles
 SCF Done:  E(RM062X) =  -363.044862608     A.U. after   11 cycles
 SCF Done:  E(RM062X) =  -363.045185247     A.U. after   11 cycles
 SCF Done:  E(RM062X) =  -363.046475527     A.U. after   13 cycles
 SCF Done:  E(RM062X) =  -363.047562566     A.U. after   13 cycles
 SCF Done:  E(RM062X) =  -363.049012844     A.U. after   13 cycles
 SCF Done:  E(RM062X) =  -363.050896248     A.U. after   13 cycles
 SCF Done:  E(RM062X) =  -363.051288400     A.U. after   12 cycles
 SCF Done:  E(RM062X) =  -363.051720086     A.U. after   12 cycles
 SCF Done:  E(RM062X) =  -363.052049530     A.U. after   13 cycles
 SCF Done:  E(RM062X) =  -363.052192884     A.U. after   12 cycles
 SCF Done:  E(RM062X) =  -363.052300781     A.U. after   11 cycles
 SCF Done:  E(RM062X) =  -363.052318556     A.U. after   11 cycles
 SCF Done:  E(RM062X) =  -363.052320462     A.U. after   10 cycles
 Optimization completed.
    -- Stationary point found.
 Normal termination of Gaussian 16 at Sun Oct 13 19:38:29 2019.

 ----------------------------------------------------------------------
 #P Geom=AllCheck Guess=TCheck SCRF=Check GenChk RM062X/6-311++G(d,p) F
 req
 ----------------------------------------------------------------------

 Structure from the checkpoint file:  "10_p.chk"
 -------------------
 Title Card Required
 -------------------
 Charge =  1 Multiplicity = 1

                         Standard orientation:
 ---------------------------------------------------------------------
 Center     Atomic      Atomic             Coordinates (Angstroms)
 Number     Number       Type             X           Y           Z
 ---------------------------------------------------------------------
      1          8           0       -2.626144    0.178031    0.655141
      2          7           0       -1.857411   -0.158048   -0.473438
      3          6           0       -0.404469   -0.071862   -0.275315
      4          6           0        0.174524    1.187899   -0.205620
      5          6           0        1.540792    1.255794    0.029393
      6          6           0        2.282125    0.085851    0.188393
      7          6           0        1.671443   -1.162428    0.117372
      8          6           0        0.303680   -1.253688   -0.115400
      9          1           0       -2.124308   -0.144140    1.422538
     10          1           0       -2.124611   -1.101457   -0.782414
     11          1           0       -0.420087    2.087616   -0.323800
     12          1           0        2.026688    2.221473    0.084210
     13          1           0        3.348196    0.149542    0.368059
     14          1           0        2.255449   -2.065526    0.238901
     15          1           0       -0.185013   -2.221107   -0.177799
     16          1           0       -2.173864    0.506288   -1.189692
 ---------------------------------------------------------------------

 SCF Done:  E(RM062X) =  -363.052320462     A.U. after    1 cycles

 The electronic state is 1-A.
 Alpha  occ. eigenvalues --  -19.89306 -15.12896 -10.78508 -10.73704 -10.73342
 Alpha  occ. eigenvalues --  -10.71679 -10.71637 -10.71396  -1.46762  -1.23805
 Alpha  occ. eigenvalues --   -1.14047  -1.03236  -1.02895  -0.92104  -0.90442
 Alpha  occ. eigenvalues --   -0.85188  -0.84081  -0.81598  -0.75178  -0.70927
 Alpha  occ. eigenvalues --   -0.69491  -0.67685  -0.67113  -0.62995  -0.61750
 Alpha  occ. eigenvalues --   -0.59192  -0.58482  -0.49347  -0.48744
 Alpha virt. eigenvalues --   -0.18083  -0.15904  -0.15607  -0.13225  -0.12107
 Alpha virt. eigenvalues --   -0.10539  -0.09483  -0.08317  -0.07858  -0.05961
 Alpha virt. eigenvalues --   -0.05551  -0.05506  -0.03841  -0.03652  -0.03037

 Mulliken charges:
               1
     1  O    0.022142
     2  N   -0.190174
     3  C   -0.726550
     4  C    0.058784
     5  C   -0.126298
     6  C   -0.250404
     7  C   -0.099820
     8  C    0.025103
     9  H    0.308825
    10  H    0.360580
    11  H    0.222643
    12  H    0.266249
    13  H    0.237509
    14  H    0.267354
    15  H    0.207443
    16  H    0.416612
 Sum of Mulliken charges =   1.00000

 Dipole moment (field-independent basis, Debye):
    X=             -2.8844    Y=             -1.1796    Z=             -1.1654  Tot=              3.3271
 Quadrupole moment (field-independent basis, Debye-Ang):
   XX=            -25.6829   YY=            -34.6593   ZZ=            -42.5979
   XY=              3.1296   XZ=              5.4318   YZ=             -0.8454

  Exact polarizability:  94.954   0.003  79.849   3.653  -0.659  48.582
 Approx polarizability: 116.596  -0.743 108.670   6.399  -1.021  63.959

                      1                      2                      3
                      A                      A                      A
 Frequencies --     56.9469               145.0023               261.3779
 Red. masses --      3.4698                 4.4932                 1.1591
 Frc consts  --      0.0066                 0.0557                 0.0467
 IR Inten    --      6.8743                 0.2909               136.4212

                      4                      5                      6
                      A                      A                      A
 Frequencies --    323.9504               357.2332               408.6366
 Red. masses --      3.1571                 2.7599                 2.8542
 Frc consts  --      0.1952                 0.2075                 0.2808
 IR Inten    --     13.1522                18.2708                 0.2504

                      7                      8                      9
                      A                      A                      A
 Frequencies --    487.9187               599.5992               622.8383
 Red. masses --      4.2801                 4.1510                 6.2643
 Frc consts  --      0.6003                 0.8793                 1.4318
 IR Inten    --     10.5795                30.0070                 0.1756

                     10                     11                     12
                      A                      A                      A
 Frequencies --    690.6017               772.2346               817.6322
 Red. masses --      2.5511                 1.5971                 3.7807
 Frc consts  --      0.7169                 0.5612                 1.4892
 IR Inten    --     36.7588                63.1659                 1.4976

                     13                     14                     15
                      A                      A                      A
 Frequencies --    850.4387               947.0890               981.9204
 Red. masses --      1.2557                 1.3056                 1.5025
 Frc consts  --      0.5351                 0.6900                 0.8535
 IR Inten    --      0.2046                 1.4859                 5.7829

                     16                     17                     18
                      A                      A                      A
 Frequencies --   1014.2354              1017.3209              1043.1687
 Red. masses --      1.3779                 5.8441                 1.3212
 Frc consts  --      0.8351                 3.5635                 0.8471
 IR Inten    --      0.1808                 3.4532                 0.0668

                     19                     20                     21
                      A                      A                      A
 Frequencies --   1047.4136              1054.6785              1122.4564
 Red. masses --      5.2835                 2.6462                 1.4387
 Frc consts  --      3.4152                 1.7342                 1.0679
 IR Inten    --     26.2733                 8.6257                 6.1681

                     22                     23                     24
                      A                      A                      A
 Frequencies --   1186.4087              1195.4212              1211.9010
 Red. masses --      1.9373                 1.1456                 1.4907
 Frc consts  --      1.6067                 0.9646                 1.2900
 IR Inten    --      7.1353                 0.7191                 2.5402

                     25                     26                     27
                      A                      A                      A
 Frequencies --   1298.4280              1350.9795              1363.5308
 Red. masses --      1.1985                 3.1530                 1.3491
 Frc consts  --      1.1905                 3.3905                 1.4778
 IR Inten    --     31.4890                 9.5720                24.5863

                     28                     29                     30
                      A                      A                      A
 Frequencies --   1419.7822              1518.0763              1521.1469
 Red. masses --      1.2020                 2.0537                 1.3644
 Frc consts  --      1.4276                 2.7885                 1.8602
 IR Inten    --     63.0212                14.7428                17.2139

                     31                     32                     33
                      A                      A                      A
 Frequencies --   1529.7242              1648.0932              1656.0796
 Red. masses --      1.9711                 1.2320                 3.3306
 Frc consts  --      2.7177                 1.9716                 5.3818
 IR Inten    --     17.9596                50.3817                18.2748

                     34                     35                     36
                      A                      A                      A
 Frequencies --   1684.0490              3197.2135              3207.3277
 Red. masses --      6.1462                 1.0929                 1.0928
 Frc consts  --     10.2700                 6.5821                 6.6233
 IR Inten    --      2.8227                 1.3982                 2.6530

                     37                     38                     39
                      A                      A                      A
 Frequencies --   3225.8871              3237.0271              3242.6406
 Red. masses --      1.0907                 1.0949                 1.0992
 Frc consts  --      6.6874                 6.7596                 6.8095
 IR Inten    --      0.0690                 3.4852                 2.2620

                     40                     41                     42
                      A                      A                      A
 Frequencies --   3403.5261              3457.6220              3767.8640
 Red. masses --      1.0549                 1.0973                 1.0687
 Frc consts  --      7.1996                 7.7292                 8.9390
 IR Inten    --     73.9458                99.3786               109.5516

 - Thermochemistry -
 -------------------
 Temperature     0.001 Kelvin.  Pressure   1.00000 Atm.
 Atom     1 has atomic number  8 and mass  15.99491

 Molecular mass:   110.06059 amu.
 Principal axes and moments of inertia in atomic units:
                           1         2         3
     Eigenvalues --   388.023611206.338611476.05874
           X            0.99992   0.00623   0.01080
           Y           -0.00616   0.99996  -0.00605
           Z           -0.01083   0.00598   0.99992
 This molecule is an asymmetric top.
 Rotational symmetry number  1.
 Rotational temperatures (Kelvin)      0.22322     0.07180     0.05868
 Rotational constants (GHZ):           4.65111     1.49605     1.22268
 Zero-point vibrational energy     358553.3 (Joules/Mol)
                                   85.69628 (Kcal/Mol)
 Vibrational temperatures:     81.93   208.63   376.06   466.09   513.98
          (Kelvin)            587.94   702.01   862.69   896.13   993.62
                             1111.07  1176.39  1223.59  1362.65  1412.76
                             1459.26  1463.70  1500.89  1506.99  1517.45
                             1614.96  1706.98  1719.94  1743.66  1868.15
                             1943.76  1961.82  2042.75  2184.17  2188.59
                             2200.93  2371.24  2382.73  2422.97  4600.08
                             4614.63  4641.33  4657.36  4665.44  4896.91
                             4974.75  5421.12

 Zero-point correction=                           0.136566 (Hartree/Particle)
 Thermal correction to Energy=                    0.136566
 Thermal correction to Enthalpy=                  0.136566
 Thermal correction to Gibbs Free Energy=         0.136566
 Sum of electronic and zero-point Energies=           -362.915755
 Sum of electronic and thermal Energies=              -362.915755
 Sum of electronic and thermal Enthalpies=            -362.915755
 Sum of electronic and thermal Free Energies=         -362.915755

                     E (Thermal)             CV                S
                      KCal/Mol        Cal/Mol-Kelvin    Cal/Mol-Kelvin
 Total                   85.696              5.962            -32.168
 Electronic               0.000              0.000              0.000
 Translational            0.000              2.981            -22.620
 Rotational               0.000              2.981             -9.548
 Vibrational             85.696              0.000              0.000

                           ! Non-Optimized Parameters !
 Normal termination of Gaussian 16 at Sun Oct 13 19:39:44 2019.
