 Gaussian 16, Revision A.03,
 Gaussian 16:  ES64L-G16RevA.03 25-Dec-2016

 -------------------------------------------------------------------
 #P opt freq m062x/6-311++g(d,p) geom=connectivity temperature=0.001
 -------------------------------------------------------------------

 -------------------
 Title Card Required
 -------------------
 Symbolic Z-matrix:
 Charge =  0 Multiplicity = 1

 SCF Done:  E(RM062X) =  -366.287457012     A.U. after   13 cycles
 SCF Done:  E(RM062X) =  -366.307061018     A.U. after   11 cycles
 SCF Done:  E(RM062X) =  -366.315987173     A.U. after   12 cycles
 SCF Done:  E(RM062X) =  -366.319920535     A.U. after   12 cycles
 SCF Done:  E(RM062X) =  -366.330720166     A.U. after   12 cycles
 SCF Done:  E(RM062X) =  -366.332350456     A.U. after   12 cycles
 SCF Done:  E(RM062X) =  -366.332930487     A.U. after   11 cycles
 SCF Done:  E(RM062X) =  -366.333304810     A.U. after   11 cycles
 SCF Done:  E(RM062X) =  -366.333348369     A.U. after   11 cycles
 SCF Done:  E(RM062X) =  -366.333361289     A.U. after   10 cycles
 SCF Done:  E(RM062X) =  -366.333362698     A.U. after    8 cycles
 SCF Done:  E(RM062X) =  -366.333362825     A.U. after    8 cycles
 SCF Done:  E(RM062X) =  -366.333362855     A.U. after    7 cycles
 Optimization completed.
    -- Stationary point found.
 Normal termination of Gaussian 16 at Sun Oct 13 19:41:20 2019.

 ----------------------------------------------------------------------
 #P Geom=AllCheck Guess=TCheck SCRF=Check GenChk RM062X/6-311++G(d,p) F
 req
 ----------------------------------------------------------------------

 Structure from the checkpoint file:  "11.chk"
 -------------------
 Title Card Required
 -------------------
 Charge =  0 Multiplicity = 1

                         Standard orientation:
 ---------------------------------------------------------------------
 Center     Atomic      Atomic             Coordinates (Angstroms)
 Number     Number       Type             X           Y           Z
 ---------------------------------------------------------------------
      1          8           0       -2.839411    0.434756    0.147770
      2          7           0       -1.939966   -0.616888   -0.195386
      3          6           0       -0.594950   -0.246825    0.251419
      4          6           0       -0.115364    1.107901   -0.275407
      5          6           0        1.310000    1.406631    0.195465
      6          6           0        2.271389    0.291485   -0.221085
      7          6           0        1.789638   -1.066541    0.294338
      8          6           0        0.360009   -1.363716   -0.166144
      9          1           0       -3.512843   -0.009799    0.668217
     10          1           0       -1.939706   -0.614257   -1.215157
     11          1           0       -0.634957   -0.208488    1.347005
     12          1           0       -0.137404    1.079008   -1.373855
     13          1           0       -0.807955    1.889318    0.042205
     14          1           0        1.643977    2.368103   -0.202726
     15          1           0        1.316468    1.498738    1.288438
     16          1           0        2.331412    0.259980   -1.315880
     17          1           0        3.279815    0.499002    0.146498
     18          1           0        2.460879   -1.862134   -0.038754
     19          1           0        1.818951   -1.065993    1.390487
     20          1           0        0.344915   -1.451752   -1.261157
     21          1           0        0.007164   -2.315171    0.238702
 ---------------------------------------------------------------------

 SCF Done:  E(RM062X) =  -366.333362855     A.U. after    1 cycles

 The electronic state is 1-A.
 Alpha  occ. eigenvalues --  -19.64538 -14.78216 -10.56148 -10.53246 -10.53204
 Alpha  occ. eigenvalues --  -10.52948 -10.52910 -10.52438  -1.18647  -0.96638
 Alpha  occ. eigenvalues --   -0.90608  -0.83860  -0.80630  -0.69776  -0.68679
 Alpha  occ. eigenvalues --   -0.64391  -0.58445  -0.56597  -0.53726  -0.52093
 Alpha  occ. eigenvalues --   -0.50628  -0.49808  -0.46842  -0.44314  -0.44007
 Alpha  occ. eigenvalues --   -0.40657  -0.40514  -0.38570  -0.37749  -0.36731
 Alpha  occ. eigenvalues --   -0.35671  -0.30476
 Alpha virt. eigenvalues --   -0.00061   0.00705   0.00848   0.01413   0.02792
 Alpha virt. eigenvalues --    0.03351   0.03871   0.04033   0.04074   0.05971
 Alpha virt. eigenvalues --    0.06625   0.07008   0.07152   0.09489   0.10424

 Mulliken charges:
               1
     1  O   -0.166341
     2  N   -0.264436
     3  C   -0.649554
     4  C   -0.121863
     5  C   -0.372378
     6  C   -0.386196
     7  C   -0.392189
     8  C   -0.214924
     9  H    0.278714
    10  H    0.279957
    11  H    0.202593
    12  H    0.169980
    13  H    0.210187
    14  H    0.196197
    15  H    0.161861
    16  H    0.147840
    17  H    0.189241
    18  H    0.196087
    19  H    0.160794
    20  H    0.160980
    21  H    0.213451
 Sum of Mulliken charges =  -0.00000

 Dipole moment (field-independent basis, Debye):
    X=              0.6850    Y=             -0.4361    Z=              0.0244  Tot=              0.8124
 Quadrupole moment (field-independent basis, Debye-Ang):
   XX=            -50.2090   YY=            -53.7453   ZZ=            -48.9934
   XY=              1.3606   XZ=             -1.4724   YZ=              0.4046

  Exact polarizability:  92.462  -0.489  80.016  -0.560   0.756  71.357
 Approx polarizability:  96.317  -1.239  92.117  -1.245   1.451  94.854

                      1                      2                      3
                      A                      A                      A
 Frequencies --    106.9650               160.1993               226.9132
 Red. masses --      3.5671                 2.8448                 3.8602
 Frc consts  --      0.0240                 0.0430                 0.1171
 IR Inten    --      0.2098                 0.2979                 3.7618

                      4                      5                      6
                      A                      A                      A
 Frequencies --    236.4788               325.0669               358.0921
 Red. masses --      1.8001                 1.4305                 1.6079
 Frc consts  --      0.0593                 0.0891                 0.1215
 IR Inten    --      0.0654                24.8873                68.3810

                      7                      8                      9
                      A                      A                      A
 Frequencies --    376.3978               438.1690               469.4745
 Red. masses --      2.5581                 2.9047                 1.7526
 Frc consts  --      0.2135                 0.3286                 0.2276
 IR Inten    --      7.2834                 0.2517                10.3070

                     10                     11                     12
                      A                      A                      A
 Frequencies --    496.7627               571.9943               798.9554
 Red. masses --      2.9849                 2.1175                 1.6542
 Frc consts  --      0.4340                 0.4082                 0.6221
 IR Inten    --      4.3683                 5.7549                 1.2845

                     13                     14                     15
                      A                      A                      A
 Frequencies --    805.4296               859.8315               886.0581
 Red. masses --      1.9144                 2.1678                 1.6188
 Frc consts  --      0.7317                 0.9443                 0.7488
 IR Inten    --      4.1912                 4.5823                15.5706

                     16                     17                     18
                      A                      A                      A
 Frequencies --    909.6234               935.4730               958.9857
 Red. masses --      1.5141                 2.0229                 2.1631
 Frc consts  --      0.7381                 1.0430                 1.1720
 IR Inten    --      8.4827                15.3056                31.0870

                     19                     20                     21
                      A                      A                      A
 Frequencies --    995.2484              1051.3337              1066.2898
 Red. masses --      1.8842                 1.6785                 2.5634
 Frc consts  --      1.0996                 1.0931                 1.7172
 IR Inten    --     18.8436                 0.8040                43.9376

                     22                     23                     24
                      A                      A                      A
 Frequencies --   1075.3251              1096.9940              1128.2098
 Red. masses --      1.2178                 1.1907                 2.3788
 Frc consts  --      0.8296                 0.8442                 1.7840
 IR Inten    --      5.3085                 0.6933                 2.7627

                     25                     26                     27
                      A                      A                      A
 Frequencies --   1144.7431              1198.3573              1218.2095
 Red. masses --      3.0150                 2.2564                 1.5388
 Frc consts  --      2.3278                 1.9092                 1.3455
 IR Inten    --      5.1921                 5.0150                 0.5212

                     28                     29                     30
                      A                      A                      A
 Frequencies --   1280.3600              1288.7359              1294.7799
 Red. masses --      1.3488                 1.2745                 1.2384
 Frc consts  --      1.3027                 1.2472                 1.2232
 IR Inten    --      5.9528                 4.3147                 2.3946

                     31                     32                     33
                      A                      A                      A
 Frequencies --   1326.8692              1331.0520              1365.4121
 Red. masses --      1.2151                 1.2367                 1.3646
 Frc consts  --      1.2604                 1.2909                 1.4989
 IR Inten    --      7.8779                10.7301                 5.3597

                     34                     35                     36
                      A                      A                      A
 Frequencies --   1374.8549              1384.3513              1386.7701
 Red. masses --      1.4114                 1.5187                 1.5504
 Frc consts  --      1.5718                 1.7148                 1.7568
 IR Inten    --     13.0547                 0.8458                 0.1072

                     37                     38                     39
                      A                      A                      A
 Frequencies --   1396.7595              1409.0907              1484.7587
 Red. masses --      1.5867                 1.4720                 1.0852
 Frc consts  --      1.8238                 1.7220                 1.4095
 IR Inten    --      2.0519                25.0264                 0.3567

                     40                     41                     42
                      A                      A                      A
 Frequencies --   1488.4650              1491.3529              1497.0183
 Red. masses --      1.0977                 1.1025                 1.0866
 Frc consts  --      1.4328                 1.4447                 1.4347
 IR Inten    --      2.6048                 7.6163                13.0925

                     43                     44                     45
                      A                      A                      A
 Frequencies --   1510.8495              1518.9373              3023.5800
 Red. masses --      1.1025                 1.1035                 1.0708
 Frc consts  --      1.4828                 1.5001                 5.7675
 IR Inten    --      2.7123                13.0100                 7.8447

                     46                     47                     48
                      A                      A                      A
 Frequencies --   3026.9410              3038.2544              3045.2122
 Red. masses --      1.0704                 1.0702                 1.0647
 Frc consts  --      5.7782                 5.8207                 5.8171
 IR Inten    --     14.5057                11.9183                13.4458

                     49                     50                     51
                      A                      A                      A
 Frequencies --   3047.6885              3053.8971              3098.1697
 Red. masses --      1.0671                 1.0755                 1.0946
 Frc consts  --      5.8396                 5.9098                 6.1903
 IR Inten    --      9.7029                73.0180                47.7473

                     52                     53                     54
                      A                      A                      A
 Frequencies --   3099.4118              3103.1652              3108.1971
 Red. masses --      1.0988                 1.1008                 1.0965
 Frc consts  --      6.2190                 6.2453                 6.2411
 IR Inten    --     37.2631                36.3887                34.0916

                     55                     56                     57
                      A                      A                      A
 Frequencies --   3124.3597              3488.0573              3899.6524
 Red. masses --      1.0935                 1.0747                 1.0684
 Frc consts  --      6.2889                 7.7041                 9.5725
 IR Inten    --     14.9645                 1.2130                73.9208

 - Thermochemistry -
 -------------------
 Temperature     0.001 Kelvin.  Pressure   1.00000 Atm.
 Atom     1 has atomic number  8 and mass  15.99491

 Molecular mass:   115.09971 amu.
 Principal axes and moments of inertia in atomic units:
                           1         2         3
     Eigenvalues --   456.616861334.228601664.21446
           X            1.00000   0.00302   0.00020
           Y           -0.00302   0.99999   0.00114
           Z           -0.00019  -0.00114   1.00000
 This molecule is an asymmetric top.
 Rotational symmetry number  1.
 Warning -- assumption of classical behavior for rotation
           may cause significant error
 Rotational temperatures (Kelvin)      0.18969     0.06492     0.05204
 Rotational constants (GHZ):           3.95242     1.35265     1.08444
 Zero-point vibrational energy     507710.6 (Joules/Mol)
                                  121.34575 (Kcal/Mol)
 Vibrational temperatures:    153.90   230.49   326.48   340.24   467.70
          (Kelvin)            515.21   541.55   630.43   675.47   714.73
                              822.97  1149.52  1158.83  1237.11  1274.84
                             1308.75  1345.94  1379.77  1431.94  1512.63
                             1534.15  1547.15  1578.33  1623.24  1647.03
                             1724.17  1752.73  1842.15  1854.20  1862.90
                             1909.07  1915.09  1964.52  1978.11  1991.77
                             1995.25  2009.63  2027.37  2136.24  2141.57
                             2145.72  2153.88  2173.78  2185.41  4350.26
                             4355.09  4371.37  4381.38  4384.94  4393.88
                             4457.58  4459.36  4464.76  4472.00  4495.26
                             5018.54  5610.73

 Zero-point correction=                           0.193377 (Hartree/Particle)
 Thermal correction to Energy=                    0.193377
 Thermal correction to Enthalpy=                  0.193377
 Thermal correction to Gibbs Free Energy=         0.193377
 Sum of electronic and zero-point Energies=           -366.139986
 Sum of electronic and thermal Energies=              -366.139986
 Sum of electronic and thermal Enthalpies=            -366.139986
 Sum of electronic and thermal Free Energies=         -366.139986

                     E (Thermal)             CV                S
                      KCal/Mol        Cal/Mol-Kelvin    Cal/Mol-Kelvin
 Total                  121.346              5.962            -31.653
 Electronic               0.000              0.000              0.000
 Translational            0.000              2.981            -22.486
 Rotational               0.000              2.981             -9.167
 Vibrational            121.346              0.000              0.000

 Optimization completed.
    -- Stationary point found.
 Normal termination of Gaussian 16 at Sun Oct 13 19:43:35 2019.
