 Gaussian 16, Revision A.03,
 Gaussian 16:  ES64L-G16RevA.03 25-Dec-2016

 -------------------------------------------------------------------
 #P opt freq m062x/6-311++g(d,p) geom=connectivity temperature=0.001
 -------------------------------------------------------------------

 -------------------
 Title Card Required
 -------------------
 Symbolic Z-matrix:
 Charge =  1 Multiplicity = 1

 SCF Done:  E(RM062X) =  -366.654487568     A.U. after   13 cycles
 SCF Done:  E(RM062X) =  -366.675132533     A.U. after   12 cycles
 SCF Done:  E(RM062X) =  -366.683075593     A.U. after   11 cycles
 SCF Done:  E(RM062X) =  -366.683369907     A.U. after   11 cycles
 SCF Done:  E(RM062X) =  -366.683834751     A.U. after   11 cycles
 SCF Done:  E(RM062X) =  -366.683907190     A.U. after   11 cycles
 SCF Done:  E(RM062X) =  -366.684266828     A.U. after   11 cycles
 SCF Done:  E(RM062X) =  -366.684699731     A.U. after   12 cycles
 SCF Done:  E(RM062X) =  -366.684715815     A.U. after   10 cycles
 SCF Done:  E(RM062X) =  -366.684719072     A.U. after    9 cycles
 SCF Done:  E(RM062X) =  -366.684719623     A.U. after    9 cycles
 SCF Done:  E(RM062X) =  -366.684719644     A.U. after    7 cycles
 Optimization completed.
    -- Stationary point found.
 Normal termination of Gaussian 16 at Sun Oct 13 19:42:10 2019.

 ----------------------------------------------------------------------
 #P Geom=AllCheck Guess=TCheck SCRF=Check GenChk RM062X/6-311++G(d,p) F
 req
 ----------------------------------------------------------------------

 Structure from the checkpoint file:  "11_p.chk"
 -------------------
 Title Card Required
 -------------------
 Charge =  1 Multiplicity = 1

                         Standard orientation:
 ---------------------------------------------------------------------
 Center     Atomic      Atomic             Coordinates (Angstroms)
 Number     Number       Type             X           Y           Z
 ---------------------------------------------------------------------
      1          8           0        2.903936    0.418052   -0.122516
      2          7           0        1.924464   -0.506159    0.235145
      3          6           0        0.525628   -0.204985   -0.266980
      4          6           0        0.063336    1.140044    0.273339
      5          6           0       -1.376833    1.400716   -0.188552
      6          6           0       -2.308411    0.263719    0.231719
      7          6           0       -1.811416   -1.080974   -0.299678
      8          6           0       -0.373547   -1.360681    0.161458
      9          1           0        2.867978    0.505965   -1.088072
     10          1           0        2.217372   -1.450622   -0.048726
     11          1           0        0.621112   -0.183709   -1.359126
     12          1           0        0.092086    1.109809    1.370619
     13          1           0        0.728741    1.940952   -0.053782
     14          1           0       -1.712150    2.351392    0.227550
     15          1           0       -1.393201    1.510472   -1.278532
     16          1           0       -2.370306    0.225535    1.325041
     17          1           0       -3.318272    0.454724   -0.134222
     18          1           0       -2.453331   -1.895134    0.038648
     19          1           0       -1.844681   -1.083956   -1.394477
     20          1           0       -0.358700   -1.444893    1.255733
     21          1           0       -0.017934   -2.307928   -0.256590
     22          1           0        1.926009   -0.480944    1.262212
 ---------------------------------------------------------------------

 SCF Done:  E(RM062X) =  -366.684719644     A.U. after    1 cycles

 The electronic state is 1-A.
 Alpha  occ. eigenvalues --  -19.89361 -15.11672 -10.78318 -10.71222 -10.70387
 Alpha  occ. eigenvalues --  -10.67995 -10.67648 -10.66542  -1.46736  -1.22705
 Alpha  occ. eigenvalues --   -1.10081  -1.00774  -1.00512  -0.91528  -0.88718
 Alpha  occ. eigenvalues --   -0.85414  -0.84040  -0.79071  -0.78323  -0.71436
 Alpha  occ. eigenvalues --   -0.69309  -0.67171  -0.66223  -0.64192  -0.61474
 Alpha  occ. eigenvalues --   -0.60360  -0.59557  -0.58921  -0.56397  -0.52860
 Alpha  occ. eigenvalues --   -0.52464  -0.51740
 Alpha virt. eigenvalues --   -0.16374  -0.14321  -0.12451  -0.10970  -0.09631
 Alpha virt. eigenvalues --   -0.08803  -0.08208  -0.08063  -0.07496  -0.05809
 Alpha virt. eigenvalues --   -0.05169  -0.04832  -0.04311  -0.04096  -0.03719

 Mulliken charges:
               1
     1  O    0.052767
     2  N   -0.300302
     3  C   -0.756518
     4  C   -0.050882
     5  C   -0.366167
     6  C   -0.428962
     7  C   -0.386017
     8  C   -0.220884
     9  H    0.306356
    10  H    0.357955
    11  H    0.250845
    12  H    0.201809
    13  H    0.212254
    14  H    0.248611
    15  H    0.195189
    16  H    0.180365
    17  H    0.234743
    18  H    0.246862
    19  H    0.197549
    20  H    0.207085
    21  H    0.198599
    22  H    0.418744
 Sum of Mulliken charges =   1.00000

 Dipole moment (field-independent basis, Debye):
    X=              4.3827    Y=             -2.1977    Z=             -0.5646  Tot=              4.9353
 Quadrupole moment (field-independent basis, Debye-Ang):
   XX=            -31.9245   YY=            -42.5106   ZZ=            -42.9309
   XY=             -4.9064   XZ=             -2.6468   YZ=             -1.5146

  Exact polarizability:  87.478   0.765  76.015  -0.373  -0.694  66.694
 Approx polarizability:  93.514   1.645  89.013  -0.335  -1.240  89.472

                      1                      2                      3
                      A                      A                      A
 Frequencies --    100.2655               145.9774               217.8209
 Red. masses --      3.1594                 2.2176                 3.4983
 Frc consts  --      0.0187                 0.0278                 0.0978
 IR Inten    --      4.6054                 2.6462                16.1077

                      4                      5                      6
                      A                      A                      A
 Frequencies --    233.0704               272.2397               334.9806
 Red. masses --      1.7956                 1.1975                 1.8725
 Frc consts  --      0.0575                 0.0523                 0.1238
 IR Inten    --      0.4057               140.6483                21.5843

                      7                      8                      9
                      A                      A                      A
 Frequencies --    360.1252               434.4920               449.9374
 Red. masses --      3.2583                 2.7539                 1.9623
 Frc consts  --      0.2490                 0.3063                 0.2341
 IR Inten    --      4.8620                 3.6897                 8.7440

                     10                     11                     12
                      A                      A                      A
 Frequencies --    483.8143               555.3650               799.5271
 Red. masses --      2.9805                 1.7919                 1.8156
 Frc consts  --      0.4110                 0.3256                 0.6838
 IR Inten    --      6.2684                11.6491                 0.4864

                     13                     14                     15
                      A                      A                      A
 Frequencies --    806.6332               858.0902               869.7966
 Red. masses --      1.7282                 2.0068                 1.7392
 Frc consts  --      0.6625                 0.8706                 0.7752
 IR Inten    --      0.2785                 1.1704                 0.5731

                     16                     17                     18
                      A                      A                      A
 Frequencies --    911.0718               922.8195               952.5928
 Red. masses --      1.7012                 2.2001                 1.8417
 Frc consts  --      0.8320                 1.1039                 0.9847
 IR Inten    --      6.6060                 2.1508                 2.5681

                     19                     20                     21
                      A                      A                      A
 Frequencies --    971.2374              1039.7512              1051.2480
 Red. masses --      1.5155                 2.6581                 2.0700
 Frc consts  --      0.8423                 1.6931                 1.3478
 IR Inten    --      9.0251                23.4705                 3.2261

                     22                     23                     24
                      A                      A                      A
 Frequencies --   1082.0033              1104.8462              1116.4290
 Red. masses --      1.2268                 1.7080                 3.9345
 Frc consts  --      0.8462                 1.2284                 2.8894
 IR Inten    --      1.0974                 2.1856                13.8058

                     25                     26                     27
                      A                      A                      A
 Frequencies --   1132.6926              1176.4862              1232.1682
 Red. masses --      1.7799                 2.1266                 1.4493
 Frc consts  --      1.3455                 1.7342                 1.2964
 IR Inten    --      5.4348                12.3972                 2.9675

                     28                     29                     30
                      A                      A                      A
 Frequencies --   1259.0272              1294.6001              1298.1939
 Red. masses --      1.1826                 1.2669                 1.2128
 Frc consts  --      1.1045                 1.2510                 1.2043
 IR Inten    --     22.5176                 2.5219                 2.6340

                     31                     32                     33
                      A                      A                      A
 Frequencies --   1317.6386              1337.7403              1366.0375
 Red. masses --      1.2659                 1.2438                 1.2805
 Frc consts  --      1.2950                 1.3115                 1.4079
 IR Inten    --     12.6023                 3.4855                 4.5689

                     34                     35                     36
                      A                      A                      A
 Frequencies --   1372.2114              1381.4200              1391.9924
 Red. masses --      1.3653                 1.4299                 1.4408
 Frc consts  --      1.5146                 1.6077                 1.6449
 IR Inten    --      0.6329                 2.6797                 9.8373

                     37                     38                     39
                      A                      A                      A
 Frequencies --   1397.8875              1426.4206              1454.2981
 Red. masses --      1.5650                 1.3012                 1.2649
 Frc consts  --      1.8018                 1.5599                 1.5762
 IR Inten    --      0.0929                24.1924                58.4656

                     40                     41                     42
                      A                      A                      A
 Frequencies --   1483.5170              1491.8296              1493.3254
 Red. masses --      1.0940                 1.0959                 1.1009
 Frc consts  --      1.4185                 1.4370                 1.4464
 IR Inten    --      1.2717                 8.0567                 9.8168

                     43                     44                     45
                      A                      A                      A
 Frequencies --   1500.6198              1511.2851              1525.0075
 Red. masses --      1.0951                 1.1178                 1.1778
 Frc consts  --      1.4529                 1.5041                 1.6139
 IR Inten    --     19.8807                 2.9382                29.6822

                     46                     47                     48
                      A                      A                      A
 Frequencies --   1653.3877              3036.8342              3039.2024
 Red. masses --      1.0589                 1.0633                 1.0690
 Frc consts  --      1.7055                 5.7775                 5.8176
 IR Inten    --     41.0747                 4.6189                11.8849

                     49                     50                     51
                      A                      A                      A
 Frequencies --   3055.2825              3063.9362              3069.6315
 Red. masses --      1.0712                 1.0691                 1.0777
 Frc consts  --      5.8917                 5.9134                 5.9831
 IR Inten    --      3.0638                 1.6275                 2.4270

                     52                     53                     54
                      A                      A                      A
 Frequencies --   3070.6152              3096.3967              3127.5878
 Red. masses --      1.0713                 1.1012                 1.0965
 Frc consts  --      5.9511                 6.2204                 6.3192
 IR Inten    --     28.0681                17.7521                 5.8523

                     55                     56                     57
                      A                      A                      A
 Frequencies --   3130.1618              3133.4958              3134.9340
 Red. masses --      1.0959                 1.0976                 1.1008
 Frc consts  --      6.3263                 6.3496                 6.3738
 IR Inten    --      7.2424                 5.5542                 8.8589

                     58                     59                     60
                      A                      A                      A
 Frequencies --   3392.9207              3456.9027              3790.2872
 Red. masses --      1.0552                 1.0965                 1.0687
 Frc consts  --      7.1573                 7.7203                 9.0457
 IR Inten    --     47.0534                79.9285               123.7531

 - Thermochemistry -
 -------------------
 Temperature     0.001 Kelvin.  Pressure   1.00000 Atm.
 Atom     1 has atomic number  8 and mass  15.99491

 Molecular mass:   116.10754 amu.
 Principal axes and moments of inertia in atomic units:
                           1         2         3
     Eigenvalues --   464.446901377.563121707.11312
           X            0.99996  -0.00860  -0.00233
           Y            0.00859   0.99996  -0.00383
           Z            0.00236   0.00381   0.99999
 This molecule is an asymmetric top.
 Rotational symmetry number  1.
 Warning -- assumption of classical behavior for rotation
           may cause significant error
 Rotational temperatures (Kelvin)      0.18649     0.06287     0.05074
 Rotational constants (GHZ):           3.88579     1.31010     1.05719
 Zero-point vibrational energy     545318.4 (Joules/Mol)
                                  130.33422 (Kcal/Mol)
 Vibrational temperatures:    144.26   210.03   313.40   335.34   391.69
          (Kelvin)            481.96   518.14   625.14   647.36   696.10
                              799.05  1150.34  1160.57  1234.60  1251.44
                             1310.83  1327.73  1370.57  1397.39  1495.97
                             1512.51  1556.76  1589.63  1606.29  1629.69
                             1692.70  1772.82  1811.46  1862.64  1867.81
                             1895.79  1924.71  1965.42  1974.31  1987.56
                             2002.77  2011.25  2052.30  2092.41  2134.45
                             2146.41  2148.56  2159.06  2174.40  2194.15
                             2378.86  4369.33  4372.73  4395.87  4408.32
                             4416.52  4417.93  4455.02  4499.90  4503.60
                             4508.40  4510.47  4881.66  4973.71  5453.38

 Zero-point correction=                           0.207701 (Hartree/Particle)
 Thermal correction to Energy=                    0.207701
 Thermal correction to Enthalpy=                  0.207701
 Thermal correction to Gibbs Free Energy=         0.207701
 Sum of electronic and zero-point Energies=           -366.477019
 Sum of electronic and thermal Energies=              -366.477019
 Sum of electronic and thermal Enthalpies=            -366.477019
 Sum of electronic and thermal Free Energies=         -366.477019

                     E (Thermal)             CV                S
                      KCal/Mol        Cal/Mol-Kelvin    Cal/Mol-Kelvin
 Total                  130.334              5.962            -31.553
 Electronic               0.000              0.000              0.000
 Translational            0.000              2.981            -22.460
 Rotational               0.000              2.981             -9.093
 Vibrational            130.334              0.000              0.000

 Optimization completed.
    -- Stationary point found.
 Normal termination of Gaussian 16 at Sun Oct 13 19:44:41 2019.
