 Gaussian 16, Revision A.03,
 Gaussian 16:  ES64L-G16RevA.03 25-Dec-2016

 -------------------------------------------------------------------
 #p opt freq m062x/6-311++g(d,p) geom=connectivity temperature=0.001
 -------------------------------------------------------------------

 -------------------
 Title Card Required
 -------------------
 Symbolic Z-matrix:
 Charge =  1 Multiplicity = 1

 SCF Done:  E(RM062X) =  -366.586196119     A.U. after   12 cycles
 SCF Done:  E(RM062X) =  -366.606506571     A.U. after   12 cycles
 SCF Done:  E(RM062X) =  -366.615410058     A.U. after   13 cycles
 SCF Done:  E(RM062X) =  -366.616468280     A.U. after   11 cycles
 SCF Done:  E(RM062X) =  -366.609258395     A.U. after   12 cycles
 SCF Done:  E(RM062X) =  -366.621899373     A.U. after   13 cycles
 SCF Done:  E(RM062X) =  -366.593400420     A.U. after   14 cycles
 SCF Done:  E(RM062X) =  -366.629601121     A.U. after   12 cycles
 SCF Done:  E(RM062X) =  -366.631553181     A.U. after   12 cycles
 SCF Done:  E(RM062X) =  -366.633954947     A.U. after   12 cycles
 SCF Done:  E(RM062X) =  -366.635539779     A.U. after   12 cycles
 SCF Done:  E(RM062X) =  -366.635926291     A.U. after   12 cycles
 SCF Done:  E(RM062X) =  -366.636028820     A.U. after   10 cycles
 SCF Done:  E(RM062X) =  -366.636039309     A.U. after   10 cycles
 SCF Done:  E(RM062X) =  -366.636040690     A.U. after    9 cycles
 SCF Done:  E(RM062X) =  -366.636040815     A.U. after    9 cycles
 SCF Done:  E(RM062X) =  -366.636040881     A.U. after    8 cycles
 Optimization completed.
    -- Stationary point found.
 Normal termination of Gaussian 16 at Mon Dec 30 16:48:58 2019.

 ----------------------------------------------------------------------
 #P Geom=AllCheck Guess=TCheck SCRF=Check GenChk RM062X/6-311++G(d,p) F
 req
 ----------------------------------------------------------------------

 Structure from the checkpoint file:  "11_p_b.chk"
 -------------------
 Title Card Required
 -------------------
 Charge =  1 Multiplicity = 1

                         Standard orientation:
 ---------------------------------------------------------------------
 Center     Atomic      Atomic             Coordinates (Angstroms)
 Number     Number       Type             X           Y           Z
 ---------------------------------------------------------------------
      1          8           0       -2.865157    0.350396    0.041731
      2          7           0       -1.852272   -0.740713   -0.156671
      3          6           0       -0.531594   -0.272530    0.301166
      4          6           0       -0.113801    1.094210   -0.246737
      5          6           0        1.322006    1.424356    0.187890
      6          6           0        2.291845    0.328638   -0.254320
      7          6           0        1.860860   -1.035145    0.283409
      8          6           0        0.431832   -1.378174   -0.153363
      9          1           0       -3.417571    0.114806    0.809392
     10          1           0       -1.868922   -0.796605   -1.179050
     11          1           0       -0.563277   -0.259658    1.396288
     12          1           0       -0.175823    1.080328   -1.342391
     13          1           0       -0.760406    1.911276    0.113867
     14          1           0        1.608993    2.390154   -0.230107
     15          1           0        1.352004    1.526580    1.278069
     16          1           0        2.332896    0.296032   -1.348807
     17          1           0        3.298628    0.567301    0.092101
     18          1           0        2.532360   -1.819177   -0.069321
     19          1           0        1.915725   -1.038724    1.377133
     20          1           0        0.398227   -1.454499   -1.247543
     21          1           0        0.113131   -2.336537    0.260434
     22          1           0       -2.445702    1.232417    0.144509
 ---------------------------------------------------------------------

 SCF Done:  E(RM062X) =  -366.636040881     A.U. after    1 cycles

 The electronic state is 1-A.
 Alpha  occ. eigenvalues --  -19.98864 -15.03033 -10.75624 -10.70945 -10.69262
 Alpha  occ. eigenvalues --  -10.67563 -10.66701 -10.65928  -1.50814  -1.20980
 Alpha  occ. eigenvalues --   -1.08234  -0.99860  -0.98912  -0.95075  -0.87821
 Alpha  occ. eigenvalues --   -0.85700  -0.82967  -0.79342  -0.77716  -0.71407
 Alpha  occ. eigenvalues --   -0.69036  -0.67019  -0.65589  -0.63369  -0.60255
 Alpha  occ. eigenvalues --   -0.59572  -0.58100  -0.55634  -0.55133  -0.52109
 Alpha  occ. eigenvalues --   -0.51560  -0.50713
 Alpha virt. eigenvalues --   -0.18906  -0.13593  -0.12462  -0.12027  -0.09813
 Alpha virt. eigenvalues --   -0.08702  -0.07900  -0.07570  -0.07330  -0.06815
 Alpha virt. eigenvalues --   -0.06110  -0.04782  -0.04135  -0.04071  -0.03491

 Mulliken charges:
               1
     1  O    0.051894
     2  N   -0.103664
     3  C   -1.010427
     4  C   -0.054092
     5  C   -0.369112
     6  C   -0.425251
     7  C   -0.404313
     8  C   -0.146964
     9  H    0.387349
    10  H    0.370989
    11  H    0.277467
    12  H    0.247219
    13  H    0.122895
    14  H    0.237066
    15  H    0.201988
    16  H    0.181560
    17  H    0.231294
    18  H    0.240939
    19  H    0.192086
    20  H    0.198052
    21  H    0.256660
    22  H    0.316367
 Sum of Mulliken charges =   1.00000

 Dipole moment (field-independent basis, Debye):
    X=             -6.6935    Y=              1.7077    Z=              0.7399  Tot=              6.9474
 Quadrupole moment (field-independent basis, Debye-Ang):
   XX=            -19.7214   YY=            -44.1894   ZZ=            -44.9701
   XY=             -5.3549   XZ=             -4.1582   YZ=              1.7260

  Exact polarizability:  92.886  -2.057  77.091  -0.544   0.920  66.509
 Approx polarizability:  99.921  -2.968  90.765  -0.658   1.768  89.105

                      1                      2                      3
                      A                      A                      A
 Frequencies --    102.7899               160.1197               213.5846
 Red. masses --      3.1088                 2.3636                 3.4547
 Frc consts  --      0.0194                 0.0357                 0.0929
 IR Inten    --      6.7157                12.9333                13.1595

                      4                      5                      6
                      A                      A                      A
 Frequencies --    233.1864               293.1262               343.0851
 Red. masses --      1.8041                 1.1664                 1.8389
 Frc consts  --      0.0578                 0.0590                 0.1275
 IR Inten    --      0.4558                33.8581                 6.5970

                      7                      8                      9
                      A                      A                      A
 Frequencies --    363.9148               433.5147               452.7290
 Red. masses --      3.2493                 2.9605                 2.1176
 Frc consts  --      0.2535                 0.3278                 0.2557
 IR Inten    --      2.8587                 0.1662                 2.4869

                     10                     11                     12
                      A                      A                      A
 Frequencies --    472.0329               549.3973               688.4041
 Red. masses --      2.5085                 1.7845                 4.0604
 Frc consts  --      0.3293                 0.3173                 1.1337
 IR Inten    --      0.5798                 0.8465               306.8448

                     13                     14                     15
                      A                      A                      A
 Frequencies --    796.6953               802.0451               826.5680
 Red. masses --      1.7569                 1.7368                 1.3699
 Frc consts  --      0.6570                 0.6583                 0.5514
 IR Inten    --      9.6323                 0.7622               143.4028

                     16                     17                     18
                      A                      A                      A
 Frequencies --    860.9390               893.5810               915.5661
 Red. masses --      2.0630                 1.6690                 1.5548
 Frc consts  --      0.9009                 0.7852                 0.7679
 IR Inten    --      0.8105                 6.3567                 6.9830

                     19                     20                     21
                      A                      A                      A
 Frequencies --    939.1066               958.9748              1008.1965
 Red. masses --      2.3024                 2.0494                 1.4098
 Frc consts  --      1.1964                 1.1104                 0.8443
 IR Inten    --     12.4804                16.1094                71.1167

                     22                     23                     24
                      A                      A                      A
 Frequencies --   1054.2783              1070.5352              1093.7846
 Red. masses --      1.8916                 1.6238                 1.3610
 Frc consts  --      1.2388                 1.0965                 0.9594
 IR Inten    --      6.5338                 9.0152                 6.0237

                     25                     26                     27
                      A                      A                      A
 Frequencies --   1096.7642              1113.1241              1141.7691
 Red. masses --      1.6673                 1.8127                 1.5030
 Frc consts  --      1.1816                 1.3233                 1.1544
 IR Inten    --      1.5171                 0.6942                 3.0226

                     28                     29                     30
                      A                      A                      A
 Frequencies --   1190.1059              1225.5431              1287.1535
 Red. masses --      2.2563                 1.4584                 1.3217
 Frc consts  --      1.8828                 1.2906                 1.2902
 IR Inten    --      5.7539                 3.1009                 3.7518

                     31                     32                     33
                      A                      A                      A
 Frequencies --   1296.8379              1303.4011              1342.0631
 Red. masses --      1.2797                 1.2464                 1.2333
 Frc consts  --      1.2681                 1.2476                 1.3088
 IR Inten    --      1.0530                 5.3610                 3.9280

                     34                     35                     36
                      A                      A                      A
 Frequencies --   1354.2018              1368.9292              1379.2480
 Red. masses --      1.2440                 1.3688                 1.4523
 Frc consts  --      1.3441                 1.5113                 1.6278
 IR Inten    --      2.5457                 0.7266                 0.7025

                     37                     38                     39
                      A                      A                      A
 Frequencies --   1393.3057              1396.7350              1406.5684
 Red. masses --      1.3961                 1.5189                 1.4264
 Frc consts  --      1.5969                 1.7459                 1.6627
 IR Inten    --     10.7330                 0.6406                 3.7856

                     40                     41                     42
                      A                      A                      A
 Frequencies --   1472.4760              1490.3198              1490.8320
 Red. masses --      1.1122                 1.0964                 1.0936
 Frc consts  --      1.4208                 1.4347                 1.4320
 IR Inten    --      3.5754                 7.1943                14.7031

                     43                     44                     45
                      A                      A                      A
 Frequencies --   1496.6218              1502.4005              1508.9550
 Red. masses --      1.0902                 1.1050                 1.1061
 Frc consts  --      1.4388                 1.4696                 1.4839
 IR Inten    --     20.6275                21.0041                 2.6693

                     46                     47                     48
                      A                      A                      A
 Frequencies --   1614.2901              2970.5143              3042.8064
 Red. masses --      1.0654                 1.0695                 1.0683
 Frc consts  --      1.6358                 5.5603                 5.8278
 IR Inten    --    115.0101                68.8706                 5.6413

                     49                     50                     51
                      A                      A                      A
 Frequencies --   3052.7390              3056.6392              3067.5543
 Red. masses --      1.0822                 1.0748                 1.0700
 Frc consts  --      5.9419                 5.9165                 5.9325
 IR Inten    --      1.7101                 1.7335                 4.7583

                     52                     53                     54
                      A                      A                      A
 Frequencies --   3070.4297              3080.1387              3127.0750
 Red. masses --      1.0677                 1.0839                 1.0970
 Frc consts  --      5.9306                 6.0588                 6.3204
 IR Inten    --     15.3760                28.9114                 6.1029

                     55                     56                     57
                      A                      A                      A
 Frequencies --   3128.3643              3131.0426              3132.9601
 Red. masses --      1.0954                 1.0987                 1.1021
 Frc consts  --      6.3164                 6.3460                 6.3733
 IR Inten    --      7.7041                 6.4258                12.2194

                     58                     59                     60
                      A                      A                      A
 Frequencies --   3476.9804              3580.2622              3751.2467
 Red. masses --      1.0772                 1.0520                 1.0795
 Frc consts  --      7.6730                 7.9454                 8.9497
 IR Inten    --     30.2238               148.0165               459.1144

 - Thermochemistry -
 -------------------
 Temperature     0.001 Kelvin.  Pressure   1.00000 Atm.
 Atom     1 has atomic number  8 and mass  15.99491

 Molecular mass:   116.10754 amu.
 Principal axes and moments of inertia in atomic units:
                           1         2         3
     Eigenvalues --   469.411741362.884951706.58809
           X            0.99995  -0.00926  -0.00303
           Y            0.00928   0.99994   0.00596
           Z            0.00297  -0.00599   0.99998
 This molecule is an asymmetric top.
 Rotational symmetry number  1.
 Warning -- assumption of classical behavior for rotation
           may cause significant error
 Rotational temperatures (Kelvin)      0.18452     0.06355     0.05075
 Rotational constants (GHZ):           3.84469     1.32421     1.05751
 Zero-point vibrational energy     538717.6 (Joules/Mol)
                                  128.75660 (Kcal/Mol)
 Vibrational temperatures:    147.89   230.38   307.30   335.50   421.74
          (Kelvin)            493.62   523.59   623.73   651.38   679.15
                              790.46   990.46  1146.27  1153.96  1189.25
                             1238.70  1285.66  1317.30  1351.16  1379.75
                             1450.57  1516.87  1540.26  1573.71  1578.00
                             1601.54  1642.75  1712.30  1763.28  1851.93
                             1865.86  1875.30  1930.93  1948.39  1969.58
                             1984.43  2004.66  2009.59  2023.74  2118.56
                             2144.24  2144.97  2153.31  2161.62  2171.05
                             2322.60  4273.91  4377.92  4392.21  4397.82
                             4413.53  4417.66  4431.63  4499.16  4501.02
                             4504.87  4507.63  5002.60  5151.20  5397.21

 Zero-point correction=                           0.205187 (Hartree/Particle)
 Thermal correction to Energy=                    0.205187
 Thermal correction to Enthalpy=                  0.205187
 Thermal correction to Gibbs Free Energy=         0.205187
 Sum of electronic and zero-point Energies=           -366.430854
 Sum of electronic and thermal Energies=              -366.430854
 Sum of electronic and thermal Enthalpies=            -366.430854
 Sum of electronic and thermal Free Energies=         -366.430854

                     E (Thermal)             CV                S
                      KCal/Mol        Cal/Mol-Kelvin    Cal/Mol-Kelvin
 Total                  128.757              5.962            -31.554
 Electronic               0.000              0.000              0.000
 Translational            0.000              2.981            -22.460
 Rotational               0.000              2.981             -9.093
 Vibrational            128.757              0.000              0.000

 Optimization completed.
    -- Stationary point found.
 Normal termination of Gaussian 16 at Mon Dec 30 16:51:22 2019.
