 Gaussian 16, Revision A.03,
 Gaussian 16:  ES64L-G16RevA.03 25-Dec-2016

 -------------------------------------------------------------------
 #P opt freq m062x/6-311++g(d,p) geom=connectivity temperature=0.001
 -------------------------------------------------------------------

 -------------------
 Title Card Required
 -------------------
 Symbolic Z-matrix:
 Charge =  0 Multiplicity = 1

 SCF Done:  E(RM062X) =  -590.538518680     A.U. after   14 cycles
 SCF Done:  E(RM062X) =  -590.562375522     A.U. after   13 cycles
 SCF Done:  E(RM062X) =  -590.566020765     A.U. after   13 cycles
 SCF Done:  E(RM062X) =  -590.566379641     A.U. after   12 cycles
 SCF Done:  E(RM062X) =  -590.566882050     A.U. after   13 cycles
 SCF Done:  E(RM062X) =  -590.568147671     A.U. after   13 cycles
 SCF Done:  E(RM062X) =  -590.570140517     A.U. after   12 cycles
 SCF Done:  E(RM062X) =  -590.577895448     A.U. after   13 cycles
 SCF Done:  E(RM062X) =  -590.581425264     A.U. after   13 cycles
 SCF Done:  E(RM062X) =  -590.582170658     A.U. after   13 cycles
 SCF Done:  E(RM062X) =  -590.582544988     A.U. after   13 cycles
 SCF Done:  E(RM062X) =  -590.582540289     A.U. after   13 cycles
 SCF Done:  E(RM062X) =  -590.582545405     A.U. after   13 cycles
 SCF Done:  E(RM062X) =  -590.582546804     A.U. after   12 cycles
 SCF Done:  E(RM062X) =  -590.582547250     A.U. after   11 cycles
 SCF Done:  E(RM062X) =  -590.582547859     A.U. after   12 cycles
 SCF Done:  E(RM062X) =  -590.582548031     A.U. after   11 cycles
 SCF Done:  E(RM062X) =  -590.582548045     A.U. after    9 cycles
 SCF Done:  E(RM062X) =  -590.582548044     A.U. after    9 cycles
 Optimization completed.
    -- Stationary point found.
 Normal termination of Gaussian 16 at Sun Oct 13 19:51:16 2019.

 ----------------------------------------------------------------------
 #P Geom=AllCheck Guess=TCheck SCRF=Check GenChk RM062X/6-311++G(d,p) F
 req
 ----------------------------------------------------------------------

 Structure from the checkpoint file:  "12.chk"
 -------------------
 Title Card Required
 -------------------
 Charge =  0 Multiplicity = 1

                         Standard orientation:
 ---------------------------------------------------------------------
 Center     Atomic      Atomic             Coordinates (Angstroms)
 Number     Number       Type             X           Y           Z
 ---------------------------------------------------------------------
      1          8           0       -2.724737   -1.197906    0.639033
      2          6           0       -2.310910   -0.205619    0.111758
      3          7           0       -3.082663    0.873791   -0.293094
      4          8           0       -4.401584    0.557470   -0.588989
      5          8           0       -1.018405    0.081728   -0.115104
      6          6           0       -0.084668   -0.881571    0.398214
      7          6           0        1.304886   -0.359878    0.164946
      8          6           0        1.636864    0.946386    0.526377
      9          6           0        2.930487    1.416704    0.343476
     10          6           0        3.907968    0.583380   -0.195894
     11          6           0        3.583088   -0.718528   -0.556173
     12          6           0        2.283265   -1.185885   -0.380218
     13          1           0       -2.679688    1.431387   -1.035547
     14          1           0       -4.897535    0.802943    0.198318
     15          1           0       -0.285645   -1.022148    1.463452
     16          1           0       -0.241782   -1.837630   -0.104063
     17          1           0        0.872804    1.593574    0.942329
     18          1           0        3.179241    2.433573    0.623162
     19          1           0        4.917483    0.950656   -0.336787
     20          1           0        4.337160   -1.369925   -0.981534
     21          1           0        2.028528   -2.199235   -0.672111
 ---------------------------------------------------------------------

 SCF Done:  E(RM062X) =  -590.582548044     A.U. after    1 cycles

 The electronic state is 1-A.
 Alpha  occ. eigenvalues --  -19.68028 -19.67986 -19.61570 -14.82842 -10.70363
 Alpha  occ. eigenvalues --  -10.61089 -10.56233 -10.55387 -10.55270 -10.55242
 Alpha  occ. eigenvalues --  -10.55158 -10.55126  -1.26622  -1.22277  -1.15589
 Alpha  occ. eigenvalues --   -0.98381  -0.97010  -0.88431  -0.85407  -0.80086
 Alpha  occ. eigenvalues --   -0.71240  -0.70067  -0.67486  -0.65405  -0.62815
 Alpha  occ. eigenvalues --   -0.60475  -0.59075  -0.56365  -0.55089  -0.53800
 Alpha  occ. eigenvalues --   -0.52379  -0.50350  -0.49827  -0.48407  -0.46180
 Alpha  occ. eigenvalues --   -0.44419  -0.41846  -0.41143  -0.41113  -0.38851
 Alpha  occ. eigenvalues --   -0.37836  -0.34689  -0.31768  -0.31180
 Alpha virt. eigenvalues --   -0.00757   0.00036   0.00367   0.00791   0.01014
 Alpha virt. eigenvalues --    0.01386   0.01861   0.02860   0.03297   0.04642
 Alpha virt. eigenvalues --    0.05962   0.06498   0.06901   0.07106   0.07592

 Mulliken charges:
               1
     1  O   -0.297130
     2  C    0.262486
     3  N   -0.393734
     4  O   -0.116641
     5  O   -0.076992
     6  C   -0.473720
     7  C    0.572656
     8  C    0.059712
     9  C   -0.316836
    10  C   -0.217214
    11  C   -0.318422
    12  C   -0.728952
    13  H    0.306953
    14  H    0.289582
    15  H    0.214903
    16  H    0.261240
    17  H    0.203228
    18  H    0.204106
    19  H    0.190576
    20  H    0.205562
    21  H    0.168638
 Sum of Mulliken charges =  -0.00000

 Dipole moment (field-independent basis, Debye):
    X=              1.7119    Y=              1.8623    Z=             -0.0566  Tot=              2.5302
 Quadrupole moment (field-independent basis, Debye-Ang):
   XX=            -65.9420   YY=            -66.6524   ZZ=            -71.7795
   XY=             -8.7196   XZ=             -3.2648   YZ=              2.9748

  Exact polarizability: 144.880   2.737 107.779  -8.890   4.812  74.249
 Approx polarizability: 153.353   5.402 144.402 -13.473   7.719  97.883

                      1                      2                      3
                      A                      A                      A
 Frequencies --     16.5839                34.6929                75.1451
 Red. masses --      4.1158                 6.3917                 5.5081
 Frc consts  --      0.0007                 0.0045                 0.0183
 IR Inten    --      0.6049                 2.7098                 0.6519

                      4                      5                      6
                      A                      A                      A
 Frequencies --    115.4662               187.5866               203.0703
 Red. masses --      4.7357                 4.9707                 3.4038
 Frc consts  --      0.0372                 0.1031                 0.0827
 IR Inten    --      4.4221                 4.1669                 9.9505

                      7                      8                      9
                      A                      A                      A
 Frequencies --    253.6117               272.5245               317.7441
 Red. masses --      4.4895                 1.7091                 2.1661
 Frc consts  --      0.1701                 0.0748                 0.1288
 IR Inten    --      4.0932                61.4793                21.6021

                     10                     11                     12
                      A                      A                      A
 Frequencies --    342.2631               411.8459               461.3005
 Red. masses --      5.8421                 2.8726                 3.3355
 Frc consts  --      0.4032                 0.2871                 0.4182
 IR Inten    --      7.7151                 0.4476                 9.4378

                     13                     14                     15
                      A                      A                      A
 Frequencies --    551.9952               581.7401               606.8701
 Red. masses --      4.6257                 3.9553                 1.8905
 Frc consts  --      0.8304                 0.7887                 0.4102
 IR Inten    --      5.2962                31.0318               116.1690

                     16                     17                     18
                      A                      A                      A
 Frequencies --    632.4265               712.7136               762.9808
 Red. masses --      6.2965                 2.0996                 1.5394
 Frc consts  --      1.4838                 0.6284                 0.5280
 IR Inten    --      0.8594                27.8285                65.7485

                     19                     20                     21
                      A                      A                      A
 Frequencies --    788.1977               803.3376               869.3501
 Red. masses --      4.6561                 9.6742                 2.4218
 Frc consts  --      1.7043                 3.6784                 1.0784
 IR Inten    --     31.2802                42.8773                15.3873

                     22                     23                     24
                      A                      A                      A
 Frequencies --    873.0668               937.4845              1005.2877
 Red. masses --      1.4815                 1.3498                 1.3812
 Frc consts  --      0.6653                 0.6990                 0.8224
 IR Inten    --      3.8719                 3.3932                 0.1535

                     25                     26                     27
                      A                      A                      A
 Frequencies --   1008.6667              1021.2529              1022.3493
 Red. masses --      2.0068                 4.9498                 1.3102
 Frc consts  --      1.2030                 3.0416                 0.8068
 IR Inten    --      1.7241                 1.6032                 0.2205

                     28                     29                     30
                      A                      A                      A
 Frequencies --   1048.9819              1059.9674              1068.3386
 Red. masses --      6.2240                 2.5107                 3.6879
 Frc consts  --      4.0351                 1.6620                 2.4800
 IR Inten    --      6.4655                 6.7861                 5.8122

                     31                     32                     33
                      A                      A                      A
 Frequencies --   1117.5266              1180.0195              1187.8450
 Red. masses --      1.5092                 1.1449                 6.0696
 Frc consts  --      1.1105                 0.9393                 5.0458
 IR Inten    --      4.1330                 0.4979               269.4935

                     34                     35                     36
                      A                      A                      A
 Frequencies --   1204.5399              1251.3102              1277.9689
 Red. masses --      1.1183                 2.2452                 1.2326
 Frc consts  --      0.9560                 2.0713                 1.1861
 IR Inten    --      0.0726                 1.6430                31.5658

                     37                     38                     39
                      A                      A                      A
 Frequencies --   1284.7833              1330.3237              1354.4746
 Red. masses --      2.7772                 3.5258                 1.3609
 Frc consts  --      2.7010                 3.6764                 1.4710
 IR Inten    --    443.7277                 1.7209                 1.9723

                     40                     41                     42
                      A                      A                      A
 Frequencies --   1415.3094              1437.9596              1496.8481
 Red. masses --      1.3770                 1.4003                 2.2487
 Frc consts  --      1.6251                 1.7060                 2.9685
 IR Inten    --    136.7391                86.3500                 9.7135

                     43                     44                     45
                      A                      A                      A
 Frequencies --   1513.2319              1532.1934              1544.4045
 Red. masses --      1.0959                 1.4411                 2.4202
 Frc consts  --      1.4786                 1.9934                 3.4012
 IR Inten    --     23.8892               104.0793                15.7707

                     46                     47                     48
                      A                      A                      A
 Frequencies --   1661.9287              1684.2019              1880.9258
 Red. masses --      6.0982                 6.0608                11.5487
 Frc consts  --      9.9237                10.1290                24.0727
 IR Inten    --      0.7651                 1.3056               401.0052

                     49                     50                     51
                      A                      A                      A
 Frequencies --   3080.6732              3131.8547              3194.6842
 Red. masses --      1.0595                 1.1064                 1.0880
 Frc consts  --      5.9246                 6.3939                 6.5426
 IR Inten    --      9.1262                 8.3971                 3.8094

                     52                     53                     54
                      A                      A                      A
 Frequencies --   3200.9478              3209.9862              3218.0891
 Red. masses --      1.0875                 1.0911                 1.0952
 Frc consts  --      6.5647                 6.6241                 6.6828
 IR Inten    --      0.2090                 3.6533                13.0239

                     55                     56                     57
                      A                      A                      A
 Frequencies --   3227.5642              3616.1764              3870.5300
 Red. masses --      1.0990                 1.0774                 1.0686
 Frc consts  --      6.7453                 8.3005                 9.4318
 IR Inten    --      7.5468                45.2367                87.4845

 - Thermochemistry -
 -------------------
 Temperature     0.001 Kelvin.  Pressure   1.00000 Atm.
 Atom     1 has atomic number  8 and mass  15.99491

 Molecular mass:   167.05824 amu.
 Principal axes and moments of inertia in atomic units:
                           1         2         3
     Eigenvalues --   600.257804714.639845082.41199
           X            0.99999  -0.00301  -0.00249
           Y            0.00308   0.99961   0.02792
           Z            0.00241  -0.02793   0.99961
 This molecule is an asymmetric top.
 Rotational symmetry number  1.
 Warning -- assumption of classical behavior for rotation
           may cause significant error
 Rotational temperatures (Kelvin)      0.14429     0.01837     0.01704
 Rotational constants (GHZ):           3.00661     0.38280     0.35510
 Zero-point vibrational energy     437553.0 (Joules/Mol)
                                  104.57767 (Kcal/Mol)
 Vibrational temperatures:     23.86    49.92   108.12   166.13   269.90
          (Kelvin)            292.17   364.89   392.10   457.16   492.44
                              592.55   663.71   794.20   836.99   873.15
                              909.92  1025.44  1097.76  1134.04  1155.82
                             1250.80  1256.15  1348.83  1446.38  1451.25
                             1469.36  1470.93  1509.25  1525.06  1537.10
                             1607.87  1697.78  1709.04  1733.06  1800.36
                             1838.71  1848.52  1914.04  1948.79  2036.31
                             2068.90  2153.63  2177.20  2204.48  2222.05
                             2391.14  2423.19  2706.23  4432.40  4506.04
                             4596.44  4605.45  4618.45  4630.11  4643.75
                             5202.87  5568.83

 Zero-point correction=                           0.166655 (Hartree/Particle)
 Thermal correction to Energy=                    0.166655
 Thermal correction to Enthalpy=                  0.166655
 Thermal correction to Gibbs Free Energy=         0.166655
 Sum of electronic and zero-point Energies=           -590.415893
 Sum of electronic and thermal Energies=              -590.415893
 Sum of electronic and thermal Enthalpies=            -590.415893
 Sum of electronic and thermal Free Energies=         -590.415893

                     E (Thermal)             CV                S
                      KCal/Mol        Cal/Mol-Kelvin    Cal/Mol-Kelvin
 Total                  104.578              5.962            -27.907
 Electronic               0.000              0.000              0.000
 Translational            0.000              2.981            -21.376
 Rotational               0.000              2.981             -6.532
 Vibrational            104.578              0.000              0.000

 Optimization completed.
    -- Stationary point found.
 Normal termination of Gaussian 16 at Sun Oct 13 19:54:11 2019.
