 Gaussian 16, Revision A.03,
 Gaussian 16:  ES64L-G16RevA.03 25-Dec-2016

 -------------------------------------------------------------------
 #p opt freq m062x/6-311++g(d,p) geom=connectivity temperature=0.001
 -------------------------------------------------------------------

 -------------------
 Title Card Required
 -------------------
 Symbolic Z-matrix:
 Charge =  1 Multiplicity = 1

 SCF Done:  E(RM062X) =  -590.873368816     A.U. after   14 cycles
 SCF Done:  E(RM062X) =  -590.897194474     A.U. after   14 cycles
 SCF Done:  E(RM062X) =  -590.903391500     A.U. after   12 cycles
 SCF Done:  E(RM062X) =  -590.911404718     A.U. after   14 cycles
 SCF Done:  E(RM062X) =  -590.914878848     A.U. after   12 cycles
 SCF Done:  E(RM062X) =  -590.917675980     A.U. after   13 cycles
 SCF Done:  E(RM062X) =  -590.918299942     A.U. after   12 cycles
 SCF Done:  E(RM062X) =  -590.918525759     A.U. after   12 cycles
 SCF Done:  E(RM062X) =  -590.918647447     A.U. after   12 cycles
 SCF Done:  E(RM062X) =  -590.918684122     A.U. after   11 cycles
 SCF Done:  E(RM062X) =  -590.918712254     A.U. after   11 cycles
 SCF Done:  E(RM062X) =  -590.918720939     A.U. after   10 cycles
 SCF Done:  E(RM062X) =  -590.918726363     A.U. after   10 cycles
 SCF Done:  E(RM062X) =  -590.918722345     A.U. after   10 cycles
 SCF Done:  E(RM062X) =  -590.918719861     A.U. after   10 cycles
 SCF Done:  E(RM062X) =  -590.918722002     A.U. after   10 cycles
 SCF Done:  E(RM062X) =  -590.918721367     A.U. after   10 cycles
 SCF Done:  E(RM062X) =  -590.918722193     A.U. after   10 cycles
 SCF Done:  E(RM062X) =  -590.918722330     A.U. after    9 cycles
 Optimization completed.
    -- Stationary point found.
 Normal termination of Gaussian 16 at Mon Dec 30 16:51:32 2019.

 ----------------------------------------------------------------------
 #P Geom=AllCheck Guess=TCheck SCRF=Check GenChk RM062X/6-311++G(d,p) F
 req
 ----------------------------------------------------------------------

 Structure from the checkpoint file:  "12_p_c.chk"
 -------------------
 Title Card Required
 -------------------
 Charge =  1 Multiplicity = 1

                         Standard orientation:
 ---------------------------------------------------------------------
 Center     Atomic      Atomic             Coordinates (Angstroms)
 Number     Number       Type             X           Y           Z
 ---------------------------------------------------------------------
      1          8           0       -2.703455   -0.030851    1.247952
      2          6           0       -2.222339   -0.031570    0.049570
      3          7           0       -3.028435   -0.057151   -1.009983
      4          8           0       -4.357753    0.181161   -0.751088
      5          8           0       -0.973072   -0.039142   -0.154251
      6          6           0       -0.017983   -0.059450    1.023014
      7          6           0        1.357655   -0.023468    0.466473
      8          6           0        1.985895    1.201922    0.241979
      9          6           0        3.267963    1.235280   -0.290657
     10          6           0        3.922190    0.045111   -0.596386
     11          6           0        3.300045   -1.179275   -0.369046
     12          6           0        2.018126   -1.214633    0.163659
     13          1           0       -2.677056    0.231451   -1.919268
     14          1           0       -4.845855   -0.585301   -1.088524
     15          1           0       -0.268594    0.817132    1.618604
     16          1           0       -0.243665   -0.976969    1.564649
     17          1           0        1.477281    2.127279    0.492117
     18          1           0        3.759782    2.185059   -0.459193
     19          1           0        4.924721    0.071631   -1.005848
     20          1           0        3.816642   -2.102797   -0.598407
     21          1           0        1.534031   -2.167268    0.352295
     22          1           0       -3.673323    0.066992    1.240920
 ---------------------------------------------------------------------

 SCF Done:  E(RM062X) =  -590.918722330     A.U. after    1 cycles

 The electronic state is 1-A.
 Alpha  occ. eigenvalues --  -19.89920 -19.88947 -19.88261 -15.05065 -10.94546
 Alpha  occ. eigenvalues --  -10.77280 -10.68057 -10.66778 -10.66768 -10.65849
 Alpha  occ. eigenvalues --  -10.65712 -10.65689  -1.50481  -1.43834  -1.40387
 Alpha  occ. eigenvalues --   -1.20113  -1.09456  -1.03085  -0.96457  -0.95913
 Alpha  occ. eigenvalues --   -0.93552  -0.90718  -0.86740  -0.82191  -0.81288
 Alpha  occ. eigenvalues --   -0.79641  -0.79441  -0.74253  -0.72072  -0.71178
 Alpha  occ. eigenvalues --   -0.68918  -0.67329  -0.64493  -0.63811  -0.63367
 Alpha  occ. eigenvalues --   -0.60937  -0.60403  -0.59999  -0.55811  -0.55029
 Alpha  occ. eigenvalues --   -0.52690  -0.52022  -0.43029  -0.42589
 Alpha virt. eigenvalues --   -0.15755  -0.15082  -0.12785  -0.11782  -0.11022
 Alpha virt. eigenvalues --   -0.09922  -0.09542  -0.08627  -0.07652  -0.07202
 Alpha virt. eigenvalues --   -0.06198  -0.05290  -0.04997  -0.03790  -0.03706

 Mulliken charges:
               1
     1  O   -0.124963
     2  C    0.298066
     3  N   -0.255333
     4  O   -0.153447
     5  O    0.024886
     6  C   -0.840067
     7  C    0.536473
     8  C   -0.234079
     9  C   -0.242721
    10  C   -0.203346
    11  C   -0.284162
    12  C   -0.158657
    13  H    0.370016
    14  H    0.336905
    15  H    0.249095
    16  H    0.246599
    17  H    0.198239
    18  H    0.234686
    19  H    0.223811
    20  H    0.233869
    21  H    0.201337
    22  H    0.342794
 Sum of Mulliken charges =   1.00000

 Dipole moment (field-independent basis, Debye):
    X=             -8.5316    Y=             -0.8528    Z=             -0.9933  Tot=              8.6314
 Quadrupole moment (field-independent basis, Debye-Ang):
   XX=             -8.8810   YY=            -60.5357   ZZ=            -61.4031
   XY=              5.5846   XZ=              2.5101   YZ=              0.9493

  Exact polarizability: 149.237   1.340  96.995 -10.358   0.963  79.814
 Approx polarizability: 156.555   1.302 131.684 -16.911   1.693 103.664

                      1                      2                      3
                      A                      A                      A
 Frequencies --     29.8491                37.4163                69.0239
 Red. masses --      5.1421                 4.2743                 5.3077
 Frc consts  --      0.0027                 0.0035                 0.0149
 IR Inten    --      0.3542                 0.8153                 1.1993

                      4                      5                      6
                      A                      A                      A
 Frequencies --    120.5571               178.0222               217.4920
 Red. masses --      5.0222                 6.5818                 5.6025
 Frc consts  --      0.0430                 0.1229                 0.1561
 IR Inten    --      4.6335                 2.2874                 3.6669

                      7                      8                      9
                      A                      A                      A
 Frequencies --    254.4575               321.4539               341.4652
 Red. masses --      5.1562                 5.0791                 2.1995
 Frc consts  --      0.1967                 0.3092                 0.1511
 IR Inten    --      3.0451                17.2218                 1.5201

                     10                     11                     12
                      A                      A                      A
 Frequencies --    410.5985               437.3996               463.7427
 Red. masses --      2.8322                 2.0820                 1.6465
 Frc consts  --      0.2813                 0.2347                 0.2086
 IR Inten    --      0.0571                40.6937                33.4931

                     13                     14                     15
                      A                      A                      A
 Frequencies --    544.1364               568.7701               581.5538
 Red. masses --      4.4857                 1.6717                 2.4818
 Frc consts  --      0.7825                 0.3186                 0.4945
 IR Inten    --     52.9440               181.9995               108.0910

                     16                     17                     18
                      A                      A                      A
 Frequencies --    630.7346               670.2399               708.6723
 Red. masses --      6.2793                 1.1441                 2.1357
 Frc consts  --      1.4718                 0.3028                 0.6319
 IR Inten    --      0.0514               116.4325                14.6074

                     19                     20                     21
                      A                      A                      A
 Frequencies --    736.0097               770.3788               779.8900
 Red. masses --      2.5807                 9.6225                 2.0768
 Frc consts  --      0.8237                 3.3647                 0.7442
 IR Inten    --     64.4227                36.7194                72.8628

                     22                     23                     24
                      A                      A                      A
 Frequencies --    839.1947               870.5516               874.9121
 Red. masses --      6.2359                 1.2511                 4.0995
 Frc consts  --      2.5875                 0.5586                 1.8489
 IR Inten    --    140.8382                 0.1512                27.6017

                     25                     26                     27
                      A                      A                      A
 Frequencies --    962.2417               969.1191              1011.4446
 Red. masses --      1.4297                 1.5914                 1.3788
 Frc consts  --      0.7800                 0.8806                 0.8311
 IR Inten    --      0.3876                 1.6473                 0.0014

                     28                     29                     30
                      A                      A                      A
 Frequencies --   1020.3195              1038.1607              1053.8483
 Red. masses --      6.0456                 1.3184                 6.9324
 Frc consts  --      3.7082                 0.8372                 4.5362
 IR Inten    --      2.5513                 0.0006                17.2076

                     31                     32                     33
                      A                      A                      A
 Frequencies --   1059.9238              1122.1103              1185.8358
 Red. masses --      2.1634                 1.4613                 2.3910
 Frc consts  --      1.4320                 1.0841                 1.9810
 IR Inten    --      1.0057                 3.8776               259.7768

                     34                     35                     36
                      A                      A                      A
 Frequencies --   1188.9775              1208.0448              1222.5453
 Red. masses --      1.1504                 1.1283                 1.7318
 Frc consts  --      0.9581                 0.9702                 1.5250
 IR Inten    --      0.4944                 0.0752               106.6292

                     37                     38                     39
                      A                      A                      A
 Frequencies --   1255.1506              1259.1413              1343.5045
 Red. masses --      1.1798                 2.3999                 4.2699
 Frc consts  --      1.0951                 2.2417                 4.5410
 IR Inten    --      3.8693                27.7198                 5.4408

                     40                     41                     42
                      A                      A                      A
 Frequencies --   1360.8668              1385.5291              1414.0426
 Red. masses --      1.2725                 1.2743                 1.1377
 Frc consts  --      1.3884                 1.4413                 1.3403
 IR Inten    --      0.3592               309.2498                14.5826

                     43                     44                     45
                      A                      A                      A
 Frequencies --   1460.1372              1498.3777              1501.3044
 Red. masses --      1.4572                 1.1293                 2.2857
 Frc consts  --      1.8305                 1.4938                 3.0353
 IR Inten    --     51.0324                 9.4845                10.7770

                     46                     47                     48
                      A                      A                      A
 Frequencies --   1543.2334              1641.2099              1662.1694
 Red. masses --      2.4632                 8.3424                 5.9668
 Frc consts  --      3.4563                13.2394                 9.7127
 IR Inten    --      0.6893               268.2129                 0.6099

                     49                     50                     51
                      A                      A                      A
 Frequencies --   1676.1344              1727.5643              3118.3339
 Red. masses --      5.9075                 5.0903                 1.0575
 Frc consts  --      9.7785                 8.9508                 6.0585
 IR Inten    --     22.7356               839.3982                 3.9120

                     52                     53                     54
                      A                      A                      A
 Frequencies --   3188.9580              3196.2671              3198.4462
 Red. masses --      1.1132                 1.0910                 1.0908
 Frc consts  --      6.6697                 6.5672                 6.5744
 IR Inten    --      0.1360                 2.6401                 2.4545

                     55                     56                     57
                      A                      A                      A
 Frequencies --   3216.4737              3229.2279              3235.8372
 Red. masses --      1.0900                 1.0946                 1.0990
 Frc consts  --      6.6443                 6.7251                 6.7798
 IR Inten    --      0.2885                 1.1008                 0.2647

                     58                     59                     60
                      A                      A                      A
 Frequencies --   3573.1093              3721.2543              3791.2081
 Red. masses --      1.0803                 1.0654                 1.0690
 Frc consts  --      8.1263                 8.6927                 9.0529
 IR Inten    --    166.7992               308.4512               206.0892

 - Thermochemistry -
 -------------------
 Temperature     0.001 Kelvin.  Pressure   1.00000 Atm.
 Atom     1 has atomic number  8 and mass  15.99491

 Molecular mass:   168.06607 amu.
 Principal axes and moments of inertia in atomic units:
                           1         2         3
     Eigenvalues --   630.635534902.894464924.91396
           X            1.00000   0.00212  -0.00202
           Y           -0.00194   0.99633   0.08555
           Z            0.00220  -0.08555   0.99633
 This molecule is an asymmetric top.
 Rotational symmetry number  1.
 Warning -- assumption of classical behavior for rotation
           may cause significant error
 Rotational temperatures (Kelvin)      0.13734     0.01767     0.01759
 Rotational constants (GHZ):           2.86178     0.36810     0.36645
 Zero-point vibrational energy     470710.0 (Joules/Mol)
                                  112.50240 (Kcal/Mol)
 Vibrational temperatures:     42.95    53.83    99.31   173.45   256.13
          (Kelvin)            312.92   366.11   462.50   491.29   590.76
                              629.32   667.22   782.89   818.33   836.73
                              907.49   964.33  1019.62  1058.95  1108.40
                             1122.09  1207.41  1252.53  1258.80  1384.45
                             1394.35  1455.24  1468.01  1493.68  1516.25
                             1524.99  1614.47  1706.15  1710.67  1738.11
                             1758.97  1805.88  1811.62  1933.00  1957.98
                             1993.47  2034.49  2100.81  2155.83  2160.04
                             2220.37  2361.33  2391.49  2411.58  2485.58
                             4486.59  4588.20  4598.72  4601.85  4627.79
                             4646.14  4655.65  5140.91  5354.06  5454.70

 Zero-point correction=                           0.179284 (Hartree/Particle)
 Thermal correction to Energy=                    0.179284
 Thermal correction to Enthalpy=                  0.179284
 Thermal correction to Gibbs Free Energy=         0.179284
 Sum of electronic and zero-point Energies=           -590.739438
 Sum of electronic and thermal Energies=              -590.739438
 Sum of electronic and thermal Enthalpies=            -590.739438
 Sum of electronic and thermal Free Energies=         -590.739438

                     E (Thermal)             CV                S
                      KCal/Mol        Cal/Mol-Kelvin    Cal/Mol-Kelvin
 Total                  112.502              5.962            -27.833
 Electronic               0.000              0.000              0.000
 Translational            0.000              2.981            -21.358
 Rotational               0.000              2.981             -6.475
 Vibrational            112.502              0.000              0.000

                           ! Non-Optimized Parameters !
 Normal termination of Gaussian 16 at Mon Dec 30 16:54:43 2019.
