 Gaussian 16, Revision A.03,
 Gaussian 16:  ES64L-G16RevA.03 25-Dec-2016

 -------------------------------------------------------------------
 #P opt freq m062x/6-311++g(d,p) geom=connectivity temperature=0.001
 -------------------------------------------------------------------

 -------------------
 Title Card Required
 -------------------
 Symbolic Z-matrix:
 Charge =  1 Multiplicity = 1

 SCF Done:  E(RM062X) =  -590.819893617     A.U. after   15 cycles
 SCF Done:  E(RM062X) =  -590.866659594     A.U. after   13 cycles
 SCF Done:  E(RM062X) =  -590.887719535     A.U. after   14 cycles
 SCF Done:  E(RM062X) =  -590.890355562     A.U. after   13 cycles
 SCF Done:  E(RM062X) =  -590.891353516     A.U. after   13 cycles
 SCF Done:  E(RM062X) =  -590.891759812     A.U. after   13 cycles
 SCF Done:  E(RM062X) =  -590.891873153     A.U. after   13 cycles
 SCF Done:  E(RM062X) =  -590.891910822     A.U. after   12 cycles
 SCF Done:  E(RM062X) =  -590.891981264     A.U. after   11 cycles
 SCF Done:  E(RM062X) =  -590.891988696     A.U. after   11 cycles
 SCF Done:  E(RM062X) =  -590.892000066     A.U. after   10 cycles
 SCF Done:  E(RM062X) =  -590.892004208     A.U. after   11 cycles
 SCF Done:  E(RM062X) =  -590.891990603     A.U. after   11 cycles
 SCF Done:  E(RM062X) =  -590.892004351     A.U. after    9 cycles
 SCF Done:  E(RM062X) =  -590.892011670     A.U. after   10 cycles
 SCF Done:  E(RM062X) =  -590.892005335     A.U. after   12 cycles
 SCF Done:  E(RM062X) =  -590.892006621     A.U. after   10 cycles
 SCF Done:  E(RM062X) =  -590.892003285     A.U. after   10 cycles
 SCF Done:  E(RM062X) =  -590.892000190     A.U. after    9 cycles
 Optimization completed.
    -- Stationary point found.
 Normal termination of Gaussian 16 at Sun Oct 13 20:00:44 2019.

 ----------------------------------------------------------------------
 #P Geom=AllCheck Guess=TCheck SCRF=Check GenChk RM062X/6-311++G(d,p) F
 req
 ----------------------------------------------------------------------

 Structure from the checkpoint file:  "12_p.chk"
 -------------------
 Title Card Required
 -------------------
 Charge =  1 Multiplicity = 1

                         Standard orientation:
 ---------------------------------------------------------------------
 Center     Atomic      Atomic             Coordinates (Angstroms)
 Number     Number       Type             X           Y           Z
 ---------------------------------------------------------------------
      1          8           0       -2.838947   -1.323801   -0.127282
      2          6           0       -2.223962   -0.338186   -0.025544
      3          7           0       -2.993932    1.039634    0.115687
      4          8           0       -4.347875    0.777684    0.041647
      5          8           0       -0.986845    0.003685    0.012349
      6          6           0        0.020327   -1.117396   -0.096826
      7          6           0        1.371882   -0.502320   -0.044815
      8          6           0        2.009440   -0.322477    1.183168
      9          6           0        3.265813    0.267582    1.232339
     10          6           0        3.886606    0.674976    0.054844
     11          6           0        3.256662    0.490754   -1.172767
     12          6           0        2.000252   -0.099101   -1.223539
     13          1           0       -2.723365    1.452767    1.018602
     14          1           0       -4.820106    1.618088    0.154156
     15          1           0       -0.189820   -1.780749    0.741516
     16          1           0       -0.197137   -1.613950   -1.041873
     17          1           0        1.529697   -0.655935    2.097656
     18          1           0        3.765069    0.399530    2.184079
     19          1           0        4.869954    1.127676    0.093142
     20          1           0        3.748792    0.796019   -2.087700
     21          1           0        1.513410   -0.258932   -2.180128
     22          1           0       -2.671767    1.654514   -0.644125
 ---------------------------------------------------------------------

 SCF Done:  E(RM062X) =  -590.892000190     A.U. after    1 cycles

 The electronic state is 1-A.
 Alpha  occ. eigenvalues --  -19.90044 -19.87755 -19.83694 -15.12543 -10.92056
 Alpha  occ. eigenvalues --  -10.76721 -10.68067 -10.66817 -10.66813 -10.65930
 Alpha  occ. eigenvalues --  -10.65816 -10.65788  -1.48956  -1.44618  -1.37904
 Alpha  occ. eigenvalues --   -1.21467  -1.09470  -1.03008  -0.96523  -0.94850
 Alpha  occ. eigenvalues --   -0.91582  -0.90042  -0.86473  -0.82566  -0.81575
 Alpha  occ. eigenvalues --   -0.79457  -0.76257  -0.75982  -0.72077  -0.69947
 Alpha  occ. eigenvalues --   -0.67539  -0.66278  -0.64395  -0.62908  -0.62281
 Alpha  occ. eigenvalues --   -0.60779  -0.60562  -0.59066  -0.57374  -0.55812
 Alpha  occ. eigenvalues --   -0.52725  -0.52090  -0.43055  -0.42690
 Alpha virt. eigenvalues --   -0.17722  -0.14434  -0.13990  -0.12233  -0.11993
 Alpha virt. eigenvalues --   -0.10836  -0.09688  -0.08390  -0.07874  -0.07207
 Alpha virt. eigenvalues --   -0.06357  -0.05706  -0.05437  -0.05172  -0.04244

 Mulliken charges:
               1
     1  O   -0.113115
     2  C    0.275832
     3  N   -0.400343
     4  O   -0.000535
     5  O    0.039216
     6  C   -0.602504
     7  C    0.298421
     8  C   -0.255185
     9  C   -0.227163
    10  C   -0.190720
    11  C   -0.225571
    12  C   -0.256481
    13  H    0.381902
    14  H    0.308074
    15  H    0.251036
    16  H    0.250003
    17  H    0.199836
    18  H    0.231025
    19  H    0.223622
    20  H    0.231018
    21  H    0.200524
    22  H    0.381106
 Sum of Mulliken charges =   1.00000

 Dipole moment (field-independent basis, Debye):
    X=             -7.2328    Y=              5.6144    Z=              0.7029  Tot=              9.1831
 Quadrupole moment (field-independent basis, Debye-Ang):
   XX=            -19.8785   YY=            -58.3240   ZZ=            -58.2971
   XY=            -21.1204   XZ=             -2.6848   YZ=              0.1469

  Exact polarizability: 143.076  15.154  82.431   1.517  -1.348  97.715
 Approx polarizability: 152.336  24.972 108.663   2.511  -2.083 132.639

                      1                      2                      3
                      A                      A                      A
 Frequencies --     19.8003                29.8742                41.5263
 Red. masses --      5.1783                 6.8620                 2.9885
 Frc consts  --      0.0012                 0.0036                 0.0030
 IR Inten    --     16.1991                 3.6009                27.9987

                      4                      5                      6
                      A                      A                      A
 Frequencies --     63.5179               146.4172               166.7572
 Red. masses --      5.1647                 3.7008                 6.5199
 Frc consts  --      0.0123                 0.0467                 0.1068
 IR Inten    --      6.6942                34.1699                15.7127

                      7                      8                      9
                      A                      A                      A
 Frequencies --    224.1285               247.1670               305.8525
 Red. masses --      1.1146                 5.5368                 7.4335
 Frc consts  --      0.0330                 0.1993                 0.4097
 IR Inten    --    110.7459                 2.3476                 1.1023

                     10                     11                     12
                      A                      A                      A
 Frequencies --    340.6961               411.2797               413.0128
 Red. masses --      2.1671                 2.8393                 4.9866
 Frc consts  --      0.1482                 0.2830                 0.5012
 IR Inten    --      1.9561                 0.0243                 6.1208

                     13                     14                     15
                      A                      A                      A
 Frequencies --    517.5955               578.3222               619.6804
 Red. masses --      4.0051                 5.1391                 2.9304
 Frc consts  --      0.6322                 1.0127                 0.6630
 IR Inten    --     34.3755                27.8792                 7.4919

                     16                     17                     18
                      A                      A                      A
 Frequencies --    630.9133               640.3850               711.6592
 Red. masses --      6.2897                 5.1066                 1.9318
 Frc consts  --      1.4751                 1.2338                 0.5764
 IR Inten    --      0.0125                 1.9679                28.6943

                     19                     20                     21
                      A                      A                      A
 Frequencies --    774.6963               797.9879               846.9951
 Red. masses --      2.1350                 4.5883                 6.3706
 Frc consts  --      0.7549                 1.7215                 2.6927
 IR Inten    --     58.0218               117.1649               126.0297

                     22                     23                     24
                      A                      A                      A
 Frequencies --    871.9553               905.3985               962.7060
 Red. masses --      1.2497                 4.4095                 1.4952
 Frc consts  --      0.5598                 2.1297                 0.8165
 IR Inten    --      0.1186               139.1491                 7.1543

                     25                     26                     27
                      A                      A                      A
 Frequencies --    967.7647               991.1306              1012.3419
 Red. masses --      1.5848                 1.9543                 1.3769
 Frc consts  --      0.8745                 1.1311                 0.8314
 IR Inten    --      0.7301                10.0635                 0.0016

                     28                     29                     30
                      A                      A                      A
 Frequencies --   1020.3705              1038.5721              1060.2940
 Red. masses --      6.0319                 1.3166                 2.1302
 Frc consts  --      3.7001                 0.8367                 1.4110
 IR Inten    --      2.3534                 0.0014                 0.4183

                     31                     32                     33
                      A                      A                      A
 Frequencies --   1122.1712              1140.0292              1189.0745
 Red. masses --      1.4621                 8.4224                 1.1508
 Frc consts  --      1.0848                 6.4494                 0.9587
 IR Inten    --      3.8929                13.2683                 0.3303

                     34                     35                     36
                      A                      A                      A
 Frequencies --   1208.0614              1252.5090              1257.4507
 Red. masses --      1.1256                 4.3073                 1.1670
 Frc consts  --      0.9679                 3.9812                 1.0872
 IR Inten    --     13.9908               527.9050                12.2537

                     37                     38                     39
                      A                      A                      A
 Frequencies --   1261.3519              1314.4842              1343.0010
 Red. masses --      2.7554                 1.0760                 4.2646
 Frc consts  --      2.5829                 1.0954                 4.5319
 IR Inten    --    176.9534                 2.9643                 4.7753

                     40                     41                     42
                      A                      A                      A
 Frequencies --   1346.7317              1361.3554              1415.2046
 Red. masses --      1.1216                 1.2735                 1.4172
 Frc consts  --      1.1985                 1.3906                 1.6723
 IR Inten    --     98.4273                 0.1786                51.2615

                     43                     44                     45
                      A                      A                      A
 Frequencies --   1465.2285              1501.2243              1502.0671
 Red. masses --      1.3086                 2.2047                 1.1395
 Frc consts  --      1.6553                 2.9274                 1.5147
 IR Inten    --    122.2123                10.3874                 7.8909

                     46                     47                     48
                      A                      A                      A
 Frequencies --   1544.2065              1639.7849              1661.8567
 Red. masses --      2.4721                 1.0836                 5.9665
 Frc consts  --      3.4732                 1.7166                 9.7086
 IR Inten    --      0.7797                38.1926                 0.6818

                     49                     50                     51
                      A                      A                      A
 Frequencies --   1677.3095              2057.4753              3115.0396
 Red. masses --      5.9301                12.2719                 1.0578
 Frc consts  --      9.8297                30.6078                 6.0478
 IR Inten    --      8.8347               548.3100                 2.9027

                     52                     53                     54
                      A                      A                      A
 Frequencies --   3182.9067              3196.3864              3197.2912
 Red. masses --      1.1133                 1.0906                 1.0905
 Frc consts  --      6.6449                 6.5652                 6.5682
 IR Inten    --      0.2154                 2.7308                 2.4266

                     55                     56                     57
                      A                      A                      A
 Frequencies --   3216.3265              3227.2974              3234.9888
 Red. masses --      1.0900                 1.0947                 1.0990
 Frc consts  --      6.6437                 6.7176                 6.7766
 IR Inten    --      0.2688                 1.2737                 0.3049

                     58                     59                     60
                      A                      A                      A
 Frequencies --   3372.0865              3444.4241              3784.3727
 Red. masses --      1.0495                 1.1004                 1.0692
 Frc consts  --      7.0313                 7.6916                 9.0220
 IR Inten    --     64.6577               103.6453               215.0406

 - Thermochemistry -
 -------------------
 Temperature     0.001 Kelvin.  Pressure   1.00000 Atm.
 Atom     1 has atomic number  8 and mass  15.99491

 Molecular mass:   168.06607 amu.
 Principal axes and moments of inertia in atomic units:
                           1         2         3
     Eigenvalues --   679.812174906.929774931.90016
           X            0.99998  -0.00578  -0.00043
           Y            0.00574   0.99785  -0.06534
           Z            0.00080   0.06533   0.99786
 This molecule is an asymmetric top.
 Rotational symmetry number  1.
 Warning -- assumption of classical behavior for rotation
           may cause significant error
 Rotational temperatures (Kelvin)      0.12741     0.01765     0.01756
 Rotational constants (GHZ):           2.65476     0.36779     0.36593
 Zero-point vibrational energy     470075.6 (Joules/Mol)
                                  112.35075 (Kcal/Mol)
 Vibrational temperatures:     28.49    42.98    59.75    91.39   210.66
          (Kelvin)            239.93   322.47   355.62   440.05   490.19
                              591.74   594.23   744.70   832.08   891.58
                              907.74   921.37  1023.92  1114.62  1148.13
                             1218.64  1254.55  1302.67  1385.12  1392.40
                             1426.02  1456.53  1468.09  1494.27  1525.53
                             1614.55  1640.25  1710.81  1738.13  1802.08
                             1809.19  1814.80  1891.25  1932.28  1937.65
                             1958.69  2036.16  2108.14  2159.93  2161.14
                             2221.77  2359.28  2391.04  2413.27  2960.25
                             4481.85  4579.49  4598.89  4600.19  4627.58
                             4643.36  4654.43  4851.68  4955.76  5444.87

 Zero-point correction=                           0.179042 (Hartree/Particle)
 Thermal correction to Energy=                    0.179042
 Thermal correction to Enthalpy=                  0.179042
 Thermal correction to Gibbs Free Energy=         0.179042
 Sum of electronic and zero-point Energies=           -590.712958
 Sum of electronic and thermal Energies=              -590.712958
 Sum of electronic and thermal Enthalpies=            -590.712958
 Sum of electronic and thermal Free Energies=         -590.712958

                     E (Thermal)             CV                S
                      KCal/Mol        Cal/Mol-Kelvin    Cal/Mol-Kelvin
 Total                  112.351              5.962            -27.756
 Electronic               0.000              0.000              0.000
 Translational            0.000              2.981            -21.358
 Rotational               0.000              2.981             -6.398
 Vibrational            112.351              0.000              0.000

                           ! Non-Optimized Parameters !
 Normal termination of Gaussian 16 at Sun Oct 13 20:03:54 2019.
