 Gaussian 16, Revision A.03,
 Gaussian 16:  ES64L-G16RevA.03 25-Dec-2016

 -------------------------------------------------------------------
 #P opt freq m062x/6-311++g(d,p) geom=connectivity temperature=0.001
 -------------------------------------------------------------------

 -------------------
 Title Card Required
 -------------------
 Symbolic Z-matrix:
 Charge =  0 Multiplicity = 1

 SCF Done:  E(RM062X) =  -476.035444232     A.U. after   15 cycles
 SCF Done:  E(RM062X) =  -476.047930602     A.U. after   14 cycles
 SCF Done:  E(RM062X) =  -476.049941766     A.U. after   12 cycles
 SCF Done:  E(RM062X) =  -476.050318744     A.U. after   12 cycles
 SCF Done:  E(RM062X) =  -476.050896517     A.U. after   13 cycles
 SCF Done:  E(RM062X) =  -476.051761189     A.U. after   14 cycles
 SCF Done:  E(RM062X) =  -476.052607949     A.U. after   12 cycles
 SCF Done:  E(RM062X) =  -476.054421880     A.U. after   15 cycles
 SCF Done:  E(RM062X) =  -476.055019547     A.U. after   14 cycles
 SCF Done:  E(RM062X) =  -476.055410821     A.U. after   14 cycles
 SCF Done:  E(RM062X) =  -476.054943291     A.U. after   14 cycles
 SCF Done:  E(RM062X) =  -476.055569298     A.U. after   13 cycles
 SCF Done:  E(RM062X) =  -476.055575729     A.U. after   12 cycles
 SCF Done:  E(RM062X) =  -476.055577385     A.U. after   11 cycles
 SCF Done:  E(RM062X) =  -476.055577662     A.U. after   11 cycles
 SCF Done:  E(RM062X) =  -476.055577765     A.U. after   10 cycles
 Optimization completed.
    -- Stationary point found.
 Normal termination of Gaussian 16 at Sun Oct 13 19:56:07 2019.

 ----------------------------------------------------------------------
 #P Geom=AllCheck Guess=TCheck SCRF=Check GenChk RM062X/6-311++G(d,p) F
 req
 ----------------------------------------------------------------------

 Structure from the checkpoint file:  "13.chk"
 -------------------
 Title Card Required
 -------------------
 Charge =  0 Multiplicity = 1

                         Standard orientation:
 ---------------------------------------------------------------------
 Center     Atomic      Atomic             Coordinates (Angstroms)
 Number     Number       Type             X           Y           Z
 ---------------------------------------------------------------------
      1          8           0        1.766613    1.389302    0.405696
      2          6           0        1.249442    0.323551    0.124781
      3          7           0        2.029336   -0.773464   -0.138991
      4          8           0        3.390403   -0.522128   -0.240671
      5          6           0       -0.222771    0.099805    0.065498
      6          6           0       -1.036958    1.212138   -0.142607
      7          6           0       -2.414251    1.055266   -0.221051
      8          6           0       -2.980647   -0.208914   -0.080521
      9          6           0       -2.169746   -1.317121    0.144477
     10          6           0       -0.790146   -1.165755    0.219467
     11          1           0        1.729396   -1.408167   -0.867577
     12          1           0        3.449698    0.436961   -0.081018
     13          1           0       -0.572625    2.186256   -0.238109
     14          1           0       -3.047340    1.918134   -0.388350
     15          1           0       -4.055942   -0.329473   -0.137625
     16          1           0       -2.612353   -2.297227    0.273956
     17          1           0       -0.161847   -2.023448    0.431198
 ---------------------------------------------------------------------

 SCF Done:  E(RM062X) =  -476.055577765     A.U. after    1 cycles

 The electronic state is 1-A.
 Alpha  occ. eigenvalues --  -19.67209 -19.62040 -14.83467 -10.66822 -10.57587
 Alpha  occ. eigenvalues --  -10.57046 -10.56626 -10.56485 -10.56479 -10.56300
 Alpha  occ. eigenvalues --   -1.24652  -1.17086  -0.99611  -0.97018  -0.87398
 Alpha  occ. eigenvalues --   -0.86665  -0.74843  -0.71642  -0.69961  -0.64487
 Alpha  occ. eigenvalues --   -0.61846  -0.58552  -0.55740  -0.53864  -0.52990
 Alpha  occ. eigenvalues --   -0.51415  -0.50617  -0.48541  -0.46648  -0.44274
 Alpha  occ. eigenvalues --   -0.43777  -0.42383  -0.36981  -0.33629  -0.32909
 Alpha  occ. eigenvalues --   -0.31748
 Alpha virt. eigenvalues --   -0.02835  -0.00948  -0.00162   0.00359   0.00936
 Alpha virt. eigenvalues --    0.02404   0.02592   0.03453   0.04866   0.06191
 Alpha virt. eigenvalues --    0.06436   0.06873   0.07704   0.08257   0.09016

 Mulliken charges:
               1
     1  O   -0.315850
     2  C   -0.354787
     3  N   -0.334210
     4  O   -0.010496
     5  C    0.866917
     6  C   -0.251314
     7  C   -0.381913
     8  C   -0.116853
     9  C   -0.320436
    10  C   -0.403962
    11  H    0.273234
    12  H    0.294793
    13  H    0.230447
    14  H    0.206825
    15  H    0.200538
    16  H    0.203665
    17  H    0.213403
 Sum of Mulliken charges =  -0.00000

 Dipole moment (field-independent basis, Debye):
    X=             -3.1903    Y=             -1.4736    Z=             -1.3814  Tot=              3.7759
 Quadrupole moment (field-independent basis, Debye-Ang):
   XX=            -58.2473   YY=            -55.3926   ZZ=            -61.1575
   XY=             -0.0434   XZ=             -1.7103   YZ=             -0.9954

  Exact polarizability: 126.685   0.362  99.238   1.739  -1.351  54.930
 Approx polarizability: 143.982   1.442 138.976   3.653  -1.792  72.108

                      1                      2                      3
                      A                      A                      A
 Frequencies --     66.1741               122.2283               158.7266
 Red. masses --      6.0138                 4.7832                 5.5067
 Frc consts  --      0.0155                 0.0421                 0.0817
 IR Inten    --      1.0288                 2.0360                 1.3384

                      4                      5                      6
                      A                      A                      A
 Frequencies --    257.4388               326.5586               350.9807
 Red. masses --      5.0924                 4.1418                 3.7539
 Frc consts  --      0.1988                 0.2602                 0.2725
 IR Inten    --      8.3411                35.7331                38.2029

                      7                      8                      9
                      A                      A                      A
 Frequencies --    367.3676               413.5598               432.6537
 Red. masses --      1.4338                 2.9169                 4.1849
 Frc consts  --      0.1140                 0.2939                 0.4616
 IR Inten    --    103.4879                 0.3268                 7.4499

                     10                     11                     12
                      A                      A                      A
 Frequencies --    502.2775               533.5785               629.0355
 Red. masses --      2.4138                 1.8421                 6.3103
 Frc consts  --      0.3588                 0.3090                 1.4711
 IR Inten    --     48.8224                86.8890                 0.1823

                     13                     14                     15
                      A                      A                      A
 Frequencies --    697.9073               709.6281               733.2718
 Red. masses --      6.0712                 2.7254                 1.9428
 Frc consts  --      1.7423                 0.8086                 0.6155
 IR Inten    --     11.5080                13.2478                99.7511

                     16                     17                     18
                      A                      A                      A
 Frequencies --    813.2134               880.5787               929.2801
 Red. masses --      2.6945                 1.2476                 4.9690
 Frc consts  --      1.0499                 0.5700                 2.5282
 IR Inten    --     11.5059                 0.8289                15.4915

                     19                     20                     21
                      A                      A                      A
 Frequencies --    965.7486              1014.4650              1020.1264
 Red. masses --      1.3976                 1.4178                 5.1247
 Frc consts  --      0.7680                 0.8597                 3.1421
 IR Inten    --      4.1276                 1.4595                 0.9286

                     22                     23                     24
                      A                      A                      A
 Frequencies --   1030.0027              1054.5123              1077.7060
 Red. masses --      1.3113                 2.9311                 3.0106
 Frc consts  --      0.8196                 1.9204                 2.0602
 IR Inten    --      0.0621                42.5445                57.2844

                     25                     26                     27
                      A                      A                      A
 Frequencies --   1114.7923              1182.1682              1193.6203
 Red. masses --      1.5208                 1.1458                 1.9038
 Frc consts  --      1.1135                 0.9434                 1.5981
 IR Inten    --      5.3805                 0.5673                30.4183

                     28                     29                     30
                      A                      A                      A
 Frequencies --   1209.9148              1304.2834              1331.2280
 Red. masses --      1.6075                 1.7471                 3.3176
 Frc consts  --      1.3865                 1.7511                 3.4640
 IR Inten    --      3.8815                 9.9338                 1.8539

                     31                     32                     33
                      A                      A                      A
 Frequencies --   1350.2966              1430.3143              1490.0005
 Red. masses --      1.5562                 1.8096                 2.2811
 Frc consts  --      1.6718                 2.1811                 2.9838
 IR Inten    --      1.3977               293.4378                10.6623

                     34                     35                     36
                      A                      A                      A
 Frequencies --   1534.1672              1563.6058              1657.1416
 Red. masses --      2.0567                 1.6366                 6.1297
 Frc consts  --      2.8521                 2.3575                 9.9176
 IR Inten    --      1.8915                49.3344                 5.2404

                     37                     38                     39
                      A                      A                      A
 Frequencies --   1678.2272              1783.0131              3203.2949
 Red. masses --      5.9561                10.2474                 1.0867
 Frc consts  --      9.8836                19.1943                 6.5697
 IR Inten    --      6.4261               256.7992                 0.1990

                     40                     41                     42
                      A                      A                      A
 Frequencies --   3209.4070              3218.4781              3227.2240
 Red. masses --      1.0894                 1.0923                 1.0955
 Frc consts  --      6.6111                 6.6663                 6.7224
 IR Inten    --      1.3718                 5.1883                 2.8925

                     43                     44                     45
                      A                      A                      A
 Frequencies --   3232.3727              3624.2222              3690.0212
 Red. masses --      1.0983                 1.0785                 1.0658
 Frc consts  --      6.7612                 8.3468                 8.5500
 IR Inten    --      5.9733                47.3897                88.2982

 - Thermochemistry -
 -------------------
 Temperature     0.001 Kelvin.  Pressure   1.00000 Atm.
 Atom     1 has atomic number  8 and mass  15.99491

 Molecular mass:   137.04768 amu.
 Principal axes and moments of inertia in atomic units:
                           1         2         3
     Eigenvalues --   503.294432211.332012664.38083
           X            1.00000  -0.00063  -0.00106
           Y            0.00061   0.99993  -0.01190
           Z            0.00107   0.01190   0.99993
 This molecule is an asymmetric top.
 Rotational symmetry number  1.
 Warning -- assumption of classical behavior for rotation
           may cause significant error
 Rotational temperatures (Kelvin)      0.17209     0.03917     0.03251
 Rotational constants (GHZ):           3.58586     0.81613     0.67736
 Zero-point vibrational energy     348800.0 (Joules/Mol)
                                   83.36521 (Kcal/Mol)
 Vibrational temperatures:     95.21   175.86   228.37   370.40   469.85
          (Kelvin)            504.98   528.56   595.02   622.49   722.67
                              767.70   905.04  1004.13  1021.00  1055.01
                             1170.03  1266.96  1337.03  1389.50  1459.59
                             1467.73  1481.94  1517.21  1550.58  1603.94
                             1700.88  1717.35  1740.80  1876.57  1915.34
                             1942.78  2057.90  2143.78  2207.32  2249.68
                             2384.26  2414.59  2565.36  4608.83  4617.62
                             4630.67  4643.26  4650.66  5214.45  5309.12

 Zero-point correction=                           0.132851 (Hartree/Particle)
 Thermal correction to Energy=                    0.132851
 Thermal correction to Enthalpy=                  0.132851
 Thermal correction to Gibbs Free Energy=         0.132851
 Sum of electronic and zero-point Energies=           -475.922727
 Sum of electronic and thermal Energies=              -475.922727
 Sum of electronic and thermal Enthalpies=            -475.922727
 Sum of electronic and thermal Free Energies=         -475.922727

                     E (Thermal)             CV                S
                      KCal/Mol        Cal/Mol-Kelvin    Cal/Mol-Kelvin
 Total                   83.365              5.962            -30.067
 Electronic               0.000              0.000              0.000
 Translational            0.000              2.981            -21.966
 Rotational               0.000              2.981             -8.101
 Vibrational             83.365              0.000              0.000

                           ! Non-Optimized Parameters !
 Normal termination of Gaussian 16 at Sun Oct 13 19:57:52 2019.
