 Gaussian 16, Revision A.03,
 Gaussian 16:  ES64L-G16RevA.03 25-Dec-2016

 -------------------------------------------------------------------
 #P opt freq m062x/6-311++g(d,p) geom=connectivity temperature=0.001
 -------------------------------------------------------------------

 -------------------
 Title Card Required
 -------------------
 Symbolic Z-matrix:
 Charge =  1 Multiplicity = 1

 SCF Done:  E(RM062X) =  -476.320830894     A.U. after   16 cycles
 SCF Done:  E(RM062X) =  -476.355534383     A.U. after   15 cycles
 SCF Done:  E(RM062X) =  -476.367590515     A.U. after   15 cycles
 SCF Done:  E(RM062X) =  -476.370993607     A.U. after   14 cycles
 SCF Done:  E(RM062X) =  -476.374078763     A.U. after   14 cycles
 SCF Done:  E(RM062X) =  -476.374869342     A.U. after   13 cycles
 SCF Done:  E(RM062X) =  -476.375271902     A.U. after   13 cycles
 SCF Done:  E(RM062X) =  -476.375659360     A.U. after   13 cycles
 SCF Done:  E(RM062X) =  -476.375838105     A.U. after   13 cycles
 SCF Done:  E(RM062X) =  -476.375947087     A.U. after   12 cycles
 SCF Done:  E(RM062X) =  -476.376092674     A.U. after   12 cycles
 SCF Done:  E(RM062X) =  -476.376138601     A.U. after   12 cycles
 SCF Done:  E(RM062X) =  -476.376165844     A.U. after   12 cycles
 SCF Done:  E(RM062X) =  -476.376178717     A.U. after   11 cycles
 SCF Done:  E(RM062X) =  -476.376180235     A.U. after   10 cycles
 Optimization completed.
    -- Stationary point found.
 Normal termination of Gaussian 16 at Sun Oct 13 19:57:30 2019.

 ----------------------------------------------------------------------
 #P Geom=AllCheck Guess=TCheck SCRF=Check GenChk RM062X/6-311++G(d,p) F
 req
 ----------------------------------------------------------------------

 Structure from the checkpoint file:  "13_p.chk"
 -------------------
 Title Card Required
 -------------------
 Charge =  1 Multiplicity = 1

                         Standard orientation:
 ---------------------------------------------------------------------
 Center     Atomic      Atomic             Coordinates (Angstroms)
 Number     Number       Type             X           Y           Z
 ---------------------------------------------------------------------
      1          8           0       -1.737767    1.474843    0.000065
      2          6           0       -1.131020    0.464844    0.000008
      3          7           0       -2.095319   -0.818410    0.000300
      4          8           0       -3.422653   -0.445907   -0.000178
      5          6           0        0.280291    0.153739   -0.000132
      6          6           0        1.156818    1.250346   -0.000031
      7          6           0        2.522100    1.024714    0.000011
      8          6           0        3.010342   -0.280816    0.000062
      9          6           0        2.140358   -1.371589   -0.000036
     10          6           0        0.772945   -1.160762   -0.000146
     11          1           0       -1.921557   -1.388842   -0.836177
     12          1           0       -3.410050    0.534618   -0.000638
     13          1           0        0.754137    2.256167    0.000038
     14          1           0        3.207135    1.862745    0.000079
     15          1           0        4.080039   -0.453089    0.000216
     16          1           0        2.531871   -2.380532   -0.000041
     17          1           0        0.120203   -2.028089   -0.000255
     18          1           0       -1.922191   -1.388460    0.837160
 ---------------------------------------------------------------------

 SCF Done:  E(RM062X) =  -476.376180235     A.U. after    1 cycles

 The electronic state is 1-A.
 Alpha  occ. eigenvalues --  -19.88166 -19.85745 -15.11346 -10.89033 -10.75022
 Alpha  occ. eigenvalues --  -10.73969 -10.72740 -10.71822 -10.71414 -10.70928
 Alpha  occ. eigenvalues --   -1.47525  -1.41469  -1.20630  -1.14694  -1.04932
 Alpha  occ. eigenvalues --   -1.02490  -0.93977  -0.89092  -0.88878  -0.86127
 Alpha  occ. eigenvalues --   -0.83795  -0.81271  -0.76568  -0.73179  -0.70873
 Alpha  occ. eigenvalues --   -0.70544  -0.68011  -0.66995  -0.66521  -0.61663
 Alpha  occ. eigenvalues --   -0.60883  -0.60377  -0.58022  -0.57588  -0.49109
 Alpha  occ. eigenvalues --   -0.48333
 Alpha virt. eigenvalues --   -0.22646  -0.16259  -0.15018  -0.12259  -0.11726
 Alpha virt. eigenvalues --   -0.10292  -0.10135  -0.09499  -0.08259  -0.07544
 Alpha virt. eigenvalues --   -0.06101  -0.05681  -0.05244  -0.04452  -0.04226

 Mulliken charges:
               1
     1  O   -0.152544
     2  C   -0.698541
     3  N   -0.424845
     4  O    0.135190
     5  C    1.572629
     6  C   -0.178576
     7  C   -0.428606
     8  C   -0.090170
     9  C   -0.484447
    10  C   -0.492369
    11  H    0.382150
    12  H    0.319474
    13  H    0.257818
    14  H    0.256962
    15  H    0.251268
    16  H    0.256323
    17  H    0.135997
    18  H    0.382287
 Sum of Mulliken charges =   1.00000

 Dipole moment (field-independent basis, Debye):
    X=             -0.8413    Y=             -2.9682    Z=              0.0007  Tot=              3.0851
 Quadrupole moment (field-independent basis, Debye-Ang):
   XX=            -29.3521   YY=            -44.0569   ZZ=            -57.0101
   XY=              3.8118   XZ=              0.0003   YZ=             -0.0024

  Exact polarizability: 132.411  -5.768  94.698   0.002  -0.000  49.122
 Approx polarizability: 156.231 -12.059 133.181   0.003  -0.000  65.352

                      1                      2                      3
                      A                      A                      A
 Frequencies --     51.9182                96.5013               152.4950
 Red. masses --      6.0982                 3.0355                 4.3516
 Frc consts  --      0.0097                 0.0167                 0.0596
 IR Inten    --      0.3100                27.5504                12.7941

                      4                      5                      6
                      A                      A                      A
 Frequencies --    165.1059               325.4438               351.5709
 Red. masses --      5.2418                 6.0015                 5.9155
 Frc consts  --      0.0842                 0.3745                 0.4308
 IR Inten    --      5.3447                 1.1457                27.2172

                      7                      8                      9
                      A                      A                      A
 Frequencies --    395.2370               404.1526               439.0483
 Red. masses --      2.6914                 2.3941                 1.2688
 Frc consts  --      0.2477                 0.2304                 0.1441
 IR Inten    --      5.6827                28.4248                78.4609

                     10                     11                     12
                      A                      A                      A
 Frequencies --    461.2503               595.2867               617.1316
 Red. masses --      6.9836                 2.6441                 6.3235
 Frc consts  --      0.8754                 0.5521                 1.4189
 IR Inten    --      0.3122                12.1749                18.6340

                     13                     14                     15
                      A                      A                      A
 Frequencies --    661.2319               679.4731               684.5902
 Red. masses --      5.8015                 2.2660                 7.2978
 Frc consts  --      1.4945                 0.6164                 2.0151
 IR Inten    --     77.3915                32.4583                57.0834

                     16                     17                     18
                      A                      A                      A
 Frequencies --    774.2152               861.5405               904.5404
 Red. masses --      1.4717                 1.2680                 7.0989
 Frc consts  --      0.5197                 0.5545                 3.4221
 IR Inten    --     64.8056                 2.0021                59.9933

                     19                     20                     21
                      A                      A                      A
 Frequencies --    951.0147               974.7300              1013.8459
 Red. masses --      1.5942                 1.4863                 5.6375
 Frc consts  --      0.8495                 0.8320                 3.4141
 IR Inten    --      6.5725                 0.9393                 3.9532

                     22                     23                     24
                      A                      A                      A
 Frequencies --   1024.2090              1048.2534              1057.7160
 Red. masses --      1.3720                 1.3371                 2.1719
 Frc consts  --      0.8480                 0.8656                 1.4316
 IR Inten    --      0.2965                 0.2324                 0.6855

                     25                     26                     27
                      A                      A                      A
 Frequencies --   1131.7005              1136.7407              1198.2695
 Red. masses --      3.1031                 2.1941                 1.1237
 Frc consts  --      2.3416                 1.6705                 0.9506
 IR Inten    --     29.6083                11.2670                 1.9764

                     28                     29                     30
                      A                      A                      A
 Frequencies --   1218.4424              1265.5008              1319.4799
 Red. masses --      1.1720                 2.9980                 1.0855
 Frc consts  --      1.0251                 2.8288                 1.1135
 IR Inten    --     35.7176                62.2264                 7.9310

                     31                     32                     33
                      A                      A                      A
 Frequencies --   1324.1024              1350.5558              1367.4626
 Red. masses --      1.3076                 2.1139                 2.2701
 Frc consts  --      1.3507                 2.2717                 2.5011
 IR Inten    --    379.4438                 8.3404                19.0490

                     34                     35                     36
                      A                      A                      A
 Frequencies --   1492.1243              1510.2831              1533.3945
 Red. masses --      2.2142                 1.2534                 2.1689
 Frc consts  --      2.9046                 1.6844                 3.0047
 IR Inten    --     41.6233               148.8045                 3.8476

                     37                     38                     39
                      A                      A                      A
 Frequencies --   1640.9964              1646.7514              1664.7572
 Red. masses --      2.5644                 1.6316                 3.2523
 Frc consts  --      4.0687                 2.6069                 5.3106
 IR Inten    --     20.3766                22.2128                76.7418

                     40                     41                     42
                      A                      A                      A
 Frequencies --   1952.4837              3189.9991              3219.5751
 Red. masses --     11.5824                 1.0906                 1.0898
 Frc consts  --     26.0149                 6.5387                 6.6555
 IR Inten    --    414.7864                 5.4363                 0.2933

                     43                     44                     45
                      A                      A                      A
 Frequencies --   3225.5503              3236.3476              3240.5146
 Red. masses --      1.0925                 1.0958                 1.0993
 Frc consts  --      6.6971                 6.7624                 6.8016
 IR Inten    --      3.4491                 3.2830                 1.3608

                     46                     47                     48
                      A                      A                      A
 Frequencies --   3398.7584              3466.1485              3602.1989
 Red. masses --      1.0504                 1.0993                 1.0669
 Frc consts  --      7.1493                 7.7818                 8.1565
 IR Inten    --     78.2088               105.4299               138.1855

 - Thermochemistry -
 -------------------
 Temperature     0.001 Kelvin.  Pressure   1.00000 Atm.
 Atom     1 has atomic number  8 and mass  15.99491

 Molecular mass:   138.05550 amu.
 Principal axes and moments of inertia in atomic units:
                           1         2         3
     Eigenvalues --   519.495192254.870342764.28807
           X            0.99998   0.00610   0.00000
           Y           -0.00610   0.99998  -0.00000
           Z           -0.00000   0.00000   1.00000
 This molecule is an asymmetric top.
 Rotational symmetry number  1.
 Warning -- assumption of classical behavior for rotation
           may cause significant error
 Rotational temperatures (Kelvin)      0.16673     0.03841     0.03133
 Rotational constants (GHZ):           3.47403     0.80037     0.65288
 Zero-point vibrational energy     382940.4 (Joules/Mol)
                                   91.52496 (Kcal/Mol)
 Vibrational temperatures:     74.70   138.84   219.41   237.55   468.24
          (Kelvin)            505.83   568.66   581.49   631.69   663.64
                              856.48   887.91   951.37   977.61   984.97
                             1113.92  1239.56  1301.43  1368.30  1402.42
                             1458.70  1473.61  1508.20  1521.82  1628.26
                             1635.52  1724.04  1753.07  1820.77  1898.44
                             1905.09  1943.15  1967.47  2146.83  2172.96
                             2206.21  2361.03  2369.31  2395.21  2809.19
                             4589.70  4632.25  4640.85  4656.38  4662.38
                             4890.06  4987.01  5182.76

 Zero-point correction=                           0.145854 (Hartree/Particle)
 Thermal correction to Energy=                    0.145854
 Thermal correction to Enthalpy=                  0.145854
 Thermal correction to Gibbs Free Energy=         0.145854
 Sum of electronic and zero-point Energies=           -476.230326
 Sum of electronic and thermal Energies=              -476.230326
 Sum of electronic and thermal Enthalpies=            -476.230326
 Sum of electronic and thermal Free Energies=         -476.230326

                     E (Thermal)             CV                S
                      KCal/Mol        Cal/Mol-Kelvin    Cal/Mol-Kelvin
 Total                   91.525              5.962            -29.957
 Electronic               0.000              0.000              0.000
 Translational            0.000              2.981            -21.944
 Rotational               0.000              2.981             -8.013
 Vibrational             91.525              0.000              0.000

 Optimization completed.
    -- Stationary point found.
 Normal termination of Gaussian 16 at Sun Oct 13 19:59:24 2019.
