 Gaussian 16, Revision A.03,
 Gaussian 16:  ES64L-G16RevA.03 25-Dec-2016

 -------------------------------------------------------------------
 #p opt freq m062x/6-311++g(d,p) geom=connectivity temperature=0.001
 -------------------------------------------------------------------

 -------------------
 Title Card Required
 -------------------
 Symbolic Z-matrix:
 Charge =  1 Multiplicity = 1

 SCF Done:  E(RM062X) =  -476.308880460     A.U. after   16 cycles
 SCF Done:  E(RM062X) =  -476.331437613     A.U. after   14 cycles
 SCF Done:  E(RM062X) =  -476.336261908     A.U. after   14 cycles
 SCF Done:  E(RM062X) =  -476.337564036     A.U. after   13 cycles
 SCF Done:  E(RM062X) =  -476.339854961     A.U. after   15 cycles
 SCF Done:  E(RM062X) =  -476.338324577     A.U. after   15 cycles
 SCF Done:  E(RM062X) =  -476.343764033     A.U. after   14 cycles
 SCF Done:  E(RM062X) =  -476.346946503     A.U. after   15 cycles
 SCF Done:  E(RM062X) =  -476.353440562     A.U. after   14 cycles
 SCF Done:  E(RM062X) =  -476.356989891     A.U. after   13 cycles
 SCF Done:  E(RM062X) =  -476.399134735     A.U. after   12 cycles
 SCF Done:  E(RM062X) =  -476.399248943     A.U. after   13 cycles
 SCF Done:  E(RM062X) =  -476.399323477     A.U. after   12 cycles
 SCF Done:  E(RM062X) =  -476.399409704     A.U. after   12 cycles
 SCF Done:  E(RM062X) =  -476.399429184     A.U. after   11 cycles
 SCF Done:  E(RM062X) =  -476.399436491     A.U. after   11 cycles
 SCF Done:  E(RM062X) =  -476.399437255     A.U. after   10 cycles
 SCF Done:  E(RM062X) =  -476.399437551     A.U. after    9 cycles
 SCF Done:  E(RM062X) =  -476.399437642     A.U. after    8 cycles
 Optimization completed.
    -- Stationary point found.
 Normal termination of Gaussian 16 at Mon Dec 30 16:52:27 2019.

 ----------------------------------------------------------------------
 #P Geom=AllCheck Guess=TCheck SCRF=Check GenChk RM062X/6-311++G(d,p) F
 req
 ----------------------------------------------------------------------

 Structure from the checkpoint file:  "13_p_b.chk"
 -------------------
 Title Card Required
 -------------------
 Charge =  1 Multiplicity = 1

                         Standard orientation:
 ---------------------------------------------------------------------
 Center     Atomic      Atomic             Coordinates (Angstroms)
 Number     Number       Type             X           Y           Z
 ---------------------------------------------------------------------
      1          8           0       -1.666423    1.420246    0.332370
      2          6           0       -1.179004    0.253091    0.067059
      3          7           0       -2.009847   -0.750728   -0.167579
      4          8           0       -3.346830   -0.452700   -0.231736
      5          6           0        0.256713    0.076363    0.042814
      6          6           0        1.062060    1.211889   -0.119677
      7          6           0        2.438217    1.061395   -0.174761
      8          6           0        3.004814   -0.205033   -0.055435
      9          6           0        2.203062   -1.332812    0.125370
     10          6           0        0.827484   -1.199009    0.176035
     11          1           0       -1.715084   -1.582612   -0.668724
     12          1           0       -2.633561    1.444100    0.214930
     13          1           0        0.608057    2.190172   -0.215381
     14          1           0        3.069333    1.930274   -0.309636
     15          1           0        4.081765   -0.316597   -0.094483
     16          1           0        2.655294   -2.309327    0.240635
     17          1           0        0.215414   -2.074120    0.365527
     18          1           0       -3.786344   -0.962465    0.466679
 ---------------------------------------------------------------------

 SCF Done:  E(RM062X) =  -476.399437642     A.U. after    1 cycles

 The electronic state is 1-A.
 Alpha  occ. eigenvalues --  -19.89179 -19.88774 -15.05888 -10.89336 -10.73747
 Alpha  occ. eigenvalues --  -10.72277 -10.71682 -10.70607 -10.70148 -10.69846
 Alpha  occ. eigenvalues --   -1.47832  -1.42228  -1.21488  -1.13373  -1.04193
 Alpha  occ. eigenvalues --   -1.01226  -0.95693  -0.90688  -0.88888  -0.84811
 Alpha  occ. eigenvalues --   -0.84237  -0.78914  -0.76860  -0.72087  -0.71111
 Alpha  occ. eigenvalues --   -0.69662  -0.68179  -0.65725  -0.64933  -0.63647
 Alpha  occ. eigenvalues --   -0.60812  -0.57515  -0.57171  -0.56600  -0.47776
 Alpha  occ. eigenvalues --   -0.47137
 Alpha virt. eigenvalues --   -0.21494  -0.15377  -0.13881  -0.12343  -0.10786
 Alpha virt. eigenvalues --   -0.09978  -0.09563  -0.08257  -0.07957  -0.07063
 Alpha virt. eigenvalues --   -0.06147  -0.05215  -0.04549  -0.04332  -0.03564

 Mulliken charges:
               1
     1  O   -0.099170
     2  C   -0.325854
     3  N   -0.315456
     4  O   -0.052266
     5  C    1.463399
     6  C   -0.667526
     7  C   -0.008985
     8  C   -0.408949
     9  C    0.010436
    10  C   -0.838801
    11  H    0.342723
    12  H    0.348891
    13  H    0.249935
    14  H    0.261021
    15  H    0.247719
    16  H    0.258167
    17  H    0.190230
    18  H    0.344487
 Sum of Mulliken charges =   1.00000

 Dipole moment (field-independent basis, Debye):
    X=             -3.7423    Y=             -1.9991    Z=              0.3416  Tot=              4.2565
 Quadrupole moment (field-independent basis, Debye-Ang):
   XX=            -17.1187   YY=            -42.0152   ZZ=            -58.7417
   XY=              3.8511   XZ=             -4.2519   YZ=             -1.1473

  Exact polarizability: 138.160   1.643  93.532  -2.167  -1.986  50.034
 Approx polarizability: 159.291   1.610 128.791  -2.992  -2.949  66.546

                      1                      2                      3
                      A                      A                      A
 Frequencies --     67.6877               117.5931               163.6647
 Red. masses --      4.6558                 4.6349                 4.7617
 Frc consts  --      0.0126                 0.0378                 0.0751
 IR Inten    --      3.7189                 0.3179                 3.8080

                      4                      5                      6
                      A                      A                      A
 Frequencies --    254.1051               333.4974               367.9917
 Red. masses --      4.7699                 4.9713                 6.5967
 Frc consts  --      0.1815                 0.3258                 0.5263
 IR Inten    --      2.0893                12.4564                 9.2720

                      7                      8                      9
                      A                      A                      A
 Frequencies --    400.5724               420.5151               438.3317
 Red. masses --      2.8544                 3.3835                 1.2324
 Frc consts  --      0.2699                 0.3525                 0.1395
 IR Inten    --      1.4897                 5.0157                93.2217

                     10                     11                     12
                      A                      A                      A
 Frequencies --    499.6409               577.2051               623.5488
 Red. masses --      4.4419                 1.2202                 5.9225
 Frc consts  --      0.6533                 0.2395                 1.3567
 IR Inten    --     10.0169               202.5573                 0.9766

                     13                     14                     15
                      A                      A                      A
 Frequencies --    675.8782               685.8647               697.2304
 Red. masses --      2.0959                 5.7450                 1.3708
 Frc consts  --      0.5641                 1.5923                 0.3926
 IR Inten    --     54.3226                21.4445                 0.3743

                     16                     17                     18
                      A                      A                      A
 Frequencies --    739.1950               807.0781               865.8416
 Red. masses --      1.9386                 2.3460                 1.2611
 Frc consts  --      0.6241                 0.9003                 0.5570
 IR Inten    --    169.2339                12.7573                 2.3711

                     19                     20                     21
                      A                      A                      A
 Frequencies --    878.1168               973.9617              1015.2758
 Red. masses --      4.1672                 1.3307                 4.6395
 Frc consts  --      1.8932                 0.7437                 2.8177
 IR Inten    --     19.5843                 1.0618                 5.8120

                     22                     23                     24
                      A                      A                      A
 Frequencies --   1018.4155              1045.2750              1056.3359
 Red. masses --      1.4558                 1.3372                 2.4304
 Frc consts  --      0.8896                 0.8608                 1.5979
 IR Inten    --      0.1408                 0.1525                 1.7889

                     25                     26                     27
                      A                      A                      A
 Frequencies --   1099.4443              1132.5042              1194.8151
 Red. masses --      4.5154                 1.5341                 1.5465
 Frc consts  --      3.2158                 1.1592                 1.3008
 IR Inten    --     55.5913                 8.8408                59.6610

                     28                     29                     30
                      A                      A                      A
 Frequencies --   1198.5173              1223.8252              1240.9988
 Red. masses --      1.3674                 1.5089                 1.4985
 Frc consts  --      1.1573                 1.3316                 1.3597
 IR Inten    --     52.5912                 8.9957               135.3653

                     31                     32                     33
                      A                      A                      A
 Frequencies --   1345.9941              1364.3061              1390.3706
 Red. masses --      2.4617                 1.9184                 1.1918
 Frc consts  --      2.6276                 2.1039                 1.3574
 IR Inten    --      5.4409                15.2949               127.2182

                     34                     35                     36
                      A                      A                      A
 Frequencies --   1428.3686              1490.8238              1525.2661
 Red. masses --      1.3686                 2.3319                 2.1237
 Frc consts  --      1.6451                 3.0536                 2.9109
 IR Inten    --     28.8754                10.6497                32.5923

                     37                     38                     39
                      A                      A                      A
 Frequencies --   1586.4967              1642.7930              1662.0017
 Red. masses --      4.6095                 4.3676                 5.5419
 Frc consts  --      6.8356                 6.9448                 9.0193
 IR Inten    --    260.7331               156.9904               171.3379

                     40                     41                     42
                      A                      A                      A
 Frequencies --   1672.9108              3203.4742              3221.1568
 Red. masses --      5.8802                 1.0909                 1.0900
 Frc consts  --      9.6959                 6.5958                 6.6633
 IR Inten    --    177.6555                 0.5924                 0.0251

                     43                     44                     45
                      A                      A                      A
 Frequencies --   3231.5632              3238.9190              3243.3966
 Red. masses --      1.0916                 1.0961                 1.0992
 Frc consts  --      6.7162                 6.7749                 6.8128
 IR Inten    --      1.1125                 2.2894                 1.1166

                     46                     47                     48
                      A                      A                      A
 Frequencies --   3589.3492              3718.0948              3781.2769
 Red. masses --      1.0806                 1.0649                 1.0688
 Frc consts  --      8.2022                 8.6735                 9.0039
 IR Inten    --    148.5289               321.3446               231.0010

 - Thermochemistry -
 -------------------
 Temperature     0.001 Kelvin.  Pressure   1.00000 Atm.
 Atom     1 has atomic number  8 and mass  15.99491

 Molecular mass:   138.05550 amu.
 Principal axes and moments of inertia in atomic units:
                           1         2         3
     Eigenvalues --   513.188162216.747532692.28495
           X            0.99999   0.00391  -0.00318
           Y           -0.00395   0.99993  -0.01071
           Z            0.00314   0.01072   0.99994
 This molecule is an asymmetric top.
 Rotational symmetry number  1.
 Warning -- assumption of classical behavior for rotation
           may cause significant error
 Rotational temperatures (Kelvin)      0.16878     0.03907     0.03217
 Rotational constants (GHZ):           3.51672     0.81414     0.67034
 Zero-point vibrational energy     383699.2 (Joules/Mol)
                                   91.70630 (Kcal/Mol)
 Vibrational temperatures:     97.39   169.19   235.48   365.60   479.83
          (Kelvin)            529.46   576.33   605.03   630.66   718.87
                              830.47   897.15   972.44   986.81  1003.16
                             1063.54  1161.21  1245.75  1263.41  1401.31
                             1460.76  1465.27  1503.92  1519.83  1581.86
                             1629.42  1719.07  1724.40  1760.81  1785.52
                             1936.59  1962.93  2000.43  2055.10  2144.96
                             2194.52  2282.61  2363.61  2391.25  2406.95
                             4609.08  4634.53  4649.50  4660.08  4666.52
                             5164.27  5349.51  5440.41

 Zero-point correction=                           0.146143 (Hartree/Particle)
 Thermal correction to Energy=                    0.146143
 Thermal correction to Enthalpy=                  0.146143
 Thermal correction to Gibbs Free Energy=         0.146143
 Sum of electronic and zero-point Energies=           -476.253294
 Sum of electronic and thermal Energies=              -476.253294
 Sum of electronic and thermal Enthalpies=            -476.253294
 Sum of electronic and thermal Free Energies=         -476.253294

                     E (Thermal)             CV                S
                      KCal/Mol        Cal/Mol-Kelvin    Cal/Mol-Kelvin
 Total                   91.706              5.962            -30.013
 Electronic               0.000              0.000              0.000
 Translational            0.000              2.981            -21.944
 Rotational               0.000              2.981             -8.068
 Vibrational             91.706              0.000              0.000

                           ! Non-Optimized Parameters !
 Normal termination of Gaussian 16 at Mon Dec 30 16:54:21 2019.
