 Gaussian 16, Revision A.03,
 Gaussian 16:  ES64L-G16RevA.03 25-Dec-2016

 -------------------------------------------------------------------
 #P opt freq m062x/6-311++g(d,p) geom=connectivity temperature=0.001
 -------------------------------------------------------------------

 -------------------
 Title Card Required
 -------------------
 Symbolic Z-matrix:
 Charge =  0 Multiplicity = 1

 SCF Done:  E(RM062X) =  -420.742545480     A.U. after   15 cycles
 SCF Done:  E(RM062X) =  -420.753258227     A.U. after   14 cycles
 SCF Done:  E(RM062X) =  -420.754041488     A.U. after   14 cycles
 SCF Done:  E(RM062X) =  -420.755518159     A.U. after   14 cycles
 SCF Done:  E(RM062X) =  -420.758401520     A.U. after   14 cycles
 SCF Done:  E(RM062X) =  -420.740016558     A.U. after   17 cycles
 SCF Done:  E(RM062X) =  -420.768684255     A.U. after   14 cycles
 SCF Done:  E(RM062X) =  -420.772250666     A.U. after   14 cycles
 SCF Done:  E(RM062X) =  -420.773500724     A.U. after   13 cycles
 SCF Done:  E(RM062X) =  -420.773581449     A.U. after   11 cycles
 SCF Done:  E(RM062X) =  -420.773587826     A.U. after   10 cycles
 SCF Done:  E(RM062X) =  -420.773588161     A.U. after    9 cycles
 SCF Done:  E(RM062X) =  -420.773588235     A.U. after    9 cycles
 SCF Done:  E(RM062X) =  -420.773588276     A.U. after    9 cycles
 Optimization completed.
    -- Stationary point found.
 Normal termination of Gaussian 16 at Sun Oct 13 19:57:25 2019.

 ----------------------------------------------------------------------
 #P Geom=AllCheck Guess=TCheck SCRF=Check GenChk RM062X/6-311++G(d,p) F
 req
 ----------------------------------------------------------------------

 Structure from the checkpoint file:  "14.chk"
 -------------------
 Title Card Required
 -------------------
 Charge =  0 Multiplicity = 1

                         Standard orientation:
 ---------------------------------------------------------------------
 Center     Atomic      Atomic             Coordinates (Angstroms)
 Number     Number       Type             X           Y           Z
 ---------------------------------------------------------------------
      1          8           0       -2.302600   -1.082175    0.000608
      2          6           0       -1.700449    0.123741   -0.000071
      3          6           0       -0.215541    0.030681   -0.000020
      4          6           0        0.443271   -1.198540   -0.000255
      5          6           0        1.832473   -1.232622   -0.000270
      6          6           0        2.558531   -0.045290    0.000018
      7          6           0        1.898632    1.181220    0.000279
      8          6           0        0.511242    1.220691    0.000230
      9          8           0       -2.323745    1.151361   -0.000603
     10          1           0       -3.255299   -0.922035    0.000484
     11          1           0       -0.132812   -2.114841   -0.000432
     12          1           0        2.348695   -2.184891   -0.000482
     13          1           0        3.641848   -0.075383    0.000041
     14          1           0        2.466422    2.103630    0.000503
     15          1           0       -0.027057    2.160750    0.000378
 ---------------------------------------------------------------------

 SCF Done:  E(RM062X) =  -420.773588276     A.U. after    1 cycles

 The electronic state is 1-A.
 Alpha  occ. eigenvalues --  -19.67762 -19.62259 -10.68715 -10.56850 -10.56213
 Alpha  occ. eigenvalues --  -10.56200 -10.56007 -10.55802 -10.55753  -1.24868
 Alpha  occ. eigenvalues --   -1.15155  -0.98195  -0.87868  -0.86095  -0.76151
 Alpha  occ. eigenvalues --   -0.70902  -0.67945  -0.62448  -0.58881  -0.56599
 Alpha  occ. eigenvalues --   -0.54711  -0.53492  -0.52414  -0.50609  -0.48551
 Alpha  occ. eigenvalues --   -0.45336  -0.43340  -0.41785  -0.40734  -0.36699
 Alpha  occ. eigenvalues --   -0.32573  -0.32336
 Alpha virt. eigenvalues --   -0.02764  -0.00507   0.00437   0.00684   0.01244
 Alpha virt. eigenvalues --    0.02444   0.03709   0.04857   0.04978   0.06918
 Alpha virt. eigenvalues --    0.07636   0.07989   0.08394   0.09313   0.09641

 Mulliken charges:
               1
     1  O   -0.214282
     2  C    0.059739
     3  C    0.954316
     4  C   -0.863281
     5  C    0.104767
     6  C   -0.480748
     7  C    0.018560
     8  C   -0.678509
     9  O   -0.299639
    10  H    0.313545
    11  H    0.227680
    12  H    0.217574
    13  H    0.197845
    14  H    0.219528
    15  H    0.222905
 Sum of Mulliken charges =  -0.00000

 Dipole moment (field-independent basis, Debye):
    X=              1.4571    Y=             -1.3998    Z=              0.0007  Tot=              2.0205
 Quadrupole moment (field-independent basis, Debye-Ang):
   XX=            -44.3725   YY=            -50.5099   ZZ=            -55.2303
   XY=              5.4830   XZ=             -0.0024   YZ=              0.0047

  Exact polarizability: 110.406  -1.880  91.729   0.001   0.003  47.026
 Approx polarizability: 130.247  -4.352 125.529   0.003   0.003  61.340

                      1                      2                      3
                      A                      A                      A
 Frequencies --     67.2644               160.3431               220.8007
 Red. masses --      7.0472                 4.4772                 5.5400
 Frc consts  --      0.0188                 0.0678                 0.1591
 IR Inten    --      1.0121                 1.0060                 1.5035

                      4                      5                      6
                      A                      A                      A
 Frequencies --    387.8434               413.9887               429.1820
 Red. masses --      7.9328                 2.8623                 2.9677
 Frc consts  --      0.7031                 0.2890                 0.3221
 IR Inten    --      4.7402                 0.3601                13.0443

                      7                      8                      9
                      A                      A                      A
 Frequencies --    501.6255               573.5753               628.7339
 Red. masses --      7.1930                 1.2236                 6.3824
 Frc consts  --      1.0664                 0.2372                 1.4865
 IR Inten    --      5.5588                74.3763                 0.0534

                     10                     11                     12
                      A                      A                      A
 Frequencies --    647.5391               702.0245               733.8533
 Red. masses --      4.9009                 2.6292                 1.6448
 Frc consts  --      1.2107                 0.7634                 0.5219
 IR Inten    --     51.7527                 3.8548               151.5148

                     13                     14                     15
                      A                      A                      A
 Frequencies --    787.5999               834.9623               878.4432
 Red. masses --      4.5120                 3.1864                 1.2464
 Frc consts  --      1.6491                 1.3088                 0.5667
 IR Inten    --     14.7030                 0.0076                 0.0457

                     16                     17                     18
                      A                      A                      A
 Frequencies --    973.5821              1015.2539              1020.6328
 Red. masses --      1.4253                 1.3750                 6.2048
 Frc consts  --      0.7960                 0.8351                 3.8082
 IR Inten    --      1.8465                 0.0417                 1.1070

                     19                     20                     21
                      A                      A                      A
 Frequencies --   1027.1703              1057.6288              1106.5271
 Red. masses --      1.3014                 2.2949                 1.5840
 Frc consts  --      0.8090                 1.5124                 1.1427
 IR Inten    --      0.0817                10.7495                35.7375

                     22                     23                     24
                      A                      A                      A
 Frequencies --   1140.0818              1180.6098              1196.9197
 Red. masses --      3.3974                 1.1467                 1.1726
 Frc consts  --      2.6017                 0.9417                 0.9898
 IR Inten    --     62.6839                 1.1646                69.1225

                     25                     26                     27
                      A                      A                      A
 Frequencies --   1227.1701              1336.1955              1346.2738
 Red. masses --      1.6517                 3.0716                 1.6773
 Frc consts  --      1.4655                 3.2312                 1.7911
 IR Inten    --    189.6457                 2.5891                 5.6500

                     28                     29                     30
                      A                      A                      A
 Frequencies --   1392.8647              1493.2560              1537.9865
 Red. masses --      2.8841                 2.3770                 2.4790
 Frc consts  --      3.2966                 3.1228                 3.4549
 IR Inten    --    167.8918                18.6159                 4.1458

                     31                     32                     33
                      A                      A                      A
 Frequencies --   1660.2148              1678.3148              1857.9131
 Red. masses --      6.3391                 6.0139                10.4707
 Frc consts  --     10.2946                 9.9805                21.2950
 IR Inten    --      4.1437                16.2020               416.6718

                     34                     35                     36
                      A                      A                      A
 Frequencies --   3204.5158              3217.2872              3223.9597
 Red. masses --      1.0867                 1.0898                 1.0938
 Frc consts  --      6.5749                 6.6466                 6.6982
 IR Inten    --      0.6369                 5.4763                 3.7222

                     37                     38                     39
                      A                      A                      A
 Frequencies --   3232.7983              3239.8805              3845.0352
 Red. masses --      1.0966                 1.0955                 1.0649
 Frc consts  --      6.7523                 6.7752                 9.2762
 IR Inten    --      4.5372                 2.2510               129.0659

 - Thermochemistry -
 -------------------
 Temperature     0.001 Kelvin.  Pressure   1.00000 Atm.
 Atom     1 has atomic number  8 and mass  15.99491

 Molecular mass:   122.03678 amu.
 Principal axes and moments of inertia in atomic units:
                           1         2         3
     Eigenvalues --   462.654331462.755661925.40988
           X            0.99994   0.01050  -0.00000
           Y           -0.01050   0.99994   0.00003
           Z            0.00000  -0.00003   1.00000
 This molecule is an asymmetric top.
 Rotational symmetry number  1.
 Warning -- assumption of classical behavior for rotation
           may cause significant error
 Rotational temperatures (Kelvin)      0.18721     0.05921     0.04498
 Rotational constants (GHZ):           3.90084     1.23380     0.93733
 Zero-point vibrational energy     306123.5 (Joules/Mol)
                                   73.16527 (Kcal/Mol)
 Vibrational temperatures:     96.78   230.70   317.68   558.02   595.64
          (Kelvin)            617.50   721.73   825.25   904.61   931.66
                             1010.06  1055.85  1133.18  1201.32  1263.88
                             1400.77  1460.72  1468.46  1477.87  1521.69
                             1592.05  1640.32  1698.63  1722.10  1765.62
                             1922.49  1936.99  2004.02  2148.46  2212.82
                             2388.68  2414.72  2673.12  4610.58  4628.96
                             4638.56  4651.28  4661.47  5532.15

 Zero-point correction=                           0.116596 (Hartree/Particle)
 Thermal correction to Energy=                    0.116596
 Thermal correction to Enthalpy=                  0.116596
 Thermal correction to Gibbs Free Energy=         0.116596
 Sum of electronic and zero-point Energies=           -420.656992
 Sum of electronic and thermal Energies=              -420.656992
 Sum of electronic and thermal Enthalpies=            -420.656992
 Sum of electronic and thermal Free Energies=         -420.656992

                     E (Thermal)             CV                S
                      KCal/Mol        Cal/Mol-Kelvin    Cal/Mol-Kelvin
 Total                   73.165              5.962            -31.229
 Electronic               0.000              0.000              0.000
 Translational            0.000              2.981            -22.312
 Rotational               0.000              2.981             -8.918
 Vibrational             73.165              0.000              0.000

 Optimization completed.
    -- Stationary point found.
 Normal termination of Gaussian 16 at Sun Oct 13 19:58:41 2019.
