 Gaussian 16, Revision A.03,
 Gaussian 16:  ES64L-G16RevA.03 25-Dec-2016

 -------------------------------------------------------------------
 #P opt freq m062x/6-311++g(d,p) geom=connectivity temperature=0.001
 -------------------------------------------------------------------

 -------------------
 Title Card Required
 -------------------
 Symbolic Z-matrix:
 Charge =  1 Multiplicity = 1

 SCF Done:  E(RM062X) =  -421.064023448     A.U. after   15 cycles
 SCF Done:  E(RM062X) =  -421.071927020     A.U. after   13 cycles
 SCF Done:  E(RM062X) =  -421.073642964     A.U. after   12 cycles
 SCF Done:  E(RM062X) =  -421.077323132     A.U. after   13 cycles
 SCF Done:  E(RM062X) =  -421.078654439     A.U. after   14 cycles
 SCF Done:  E(RM062X) =  -421.076965473     A.U. after   13 cycles
 SCF Done:  E(RM062X) =  -421.073146357     A.U. after   14 cycles
 SCF Done:  E(RM062X) =  -421.068561513     A.U. after   14 cycles
 SCF Done:  E(RM062X) =  -421.079429875     A.U. after   11 cycles
 SCF Done:  E(RM062X) =  -421.081013692     A.U. after   13 cycles
 SCF Done:  E(RM062X) =  -421.093878035     A.U. after   14 cycles
 SCF Done:  E(RM062X) =  -421.094622856     A.U. after   14 cycles
 SCF Done:  E(RM062X) =  -421.094849708     A.U. after   13 cycles
 SCF Done:  E(RM062X) =  -421.094911255     A.U. after   12 cycles
 SCF Done:  E(RM062X) =  -421.094923067     A.U. after   12 cycles
 SCF Done:  E(RM062X) =  -421.094925496     A.U. after   11 cycles
 SCF Done:  E(RM062X) =  -421.094926851     A.U. after   11 cycles
 SCF Done:  E(RM062X) =  -421.094926915     A.U. after   10 cycles
 SCF Done:  E(RM062X) =  -421.094926916     A.U. after   10 cycles
 Optimization completed.
    -- Stationary point found.
 Normal termination of Gaussian 16 at Sun Oct 13 20:03:57 2019.

 ----------------------------------------------------------------------
 #P Geom=AllCheck Guess=TCheck SCRF=Check GenChk RM062X/6-311++G(d,p) F
 req
 ----------------------------------------------------------------------

 Structure from the checkpoint file:  "14_p.chk"
 -------------------
 Title Card Required
 -------------------
 Charge =  1 Multiplicity = 1

                         Standard orientation:
 ---------------------------------------------------------------------
 Center     Atomic      Atomic             Coordinates (Angstroms)
 Number     Number       Type             X           Y           Z
 ---------------------------------------------------------------------
      1          8           0       -2.241237   -1.120610    0.108474
      2          6           0       -1.619035   -0.001970    0.002212
      3          6           0       -0.184216    0.008923    0.004178
      4          6           0        0.498581   -1.219731   -0.041750
      5          6           0        1.881404   -1.224413   -0.052197
      6          6           0        2.580084   -0.018920   -0.007878
      7          6           0        1.905665    1.202959    0.049000
      8          6           0        0.525135    1.223021    0.056412
      9          8           0       -2.375739    1.040124   -0.098895
     10          1           0       -3.208224   -1.017411    0.069662
     11          1           0       -0.057712   -2.147801   -0.079589
     12          1           0        2.417498   -2.163603   -0.094465
     13          1           0        3.663712   -0.028029   -0.014596
     14          1           0        2.461019    2.130592    0.094893
     15          1           0        0.024583    2.184026    0.127505
     16          1           0       -1.890767    1.866914   -0.239904
 ---------------------------------------------------------------------

 SCF Done:  E(RM062X) =  -421.094926916     A.U. after    1 cycles

 The electronic state is 1-A.
 Alpha  occ. eigenvalues --  -19.91236 -19.90496 -10.93432 -10.75448 -10.74433
 Alpha  occ. eigenvalues --  -10.73554 -10.72587 -10.71805 -10.71433  -1.50622
 Alpha  occ. eigenvalues --   -1.41571  -1.15785  -1.06937  -1.03080  -0.98696
 Alpha  occ. eigenvalues --   -0.93144  -0.89253  -0.86306  -0.81548  -0.78582
 Alpha  occ. eigenvalues --   -0.75192  -0.71955  -0.71732  -0.69672  -0.66870
 Alpha  occ. eigenvalues --   -0.66640  -0.65624  -0.62200  -0.59267  -0.58352
 Alpha  occ. eigenvalues --   -0.49948  -0.48858
 Alpha virt. eigenvalues --   -0.23979  -0.15282  -0.14910  -0.12355  -0.10772
 Alpha virt. eigenvalues --   -0.10238  -0.09065  -0.08618  -0.07808  -0.07574
 Alpha virt. eigenvalues --   -0.05388  -0.04780  -0.03982  -0.03914  -0.03309

 Mulliken charges:
               1
     1  O   -0.089201
     2  C   -0.349001
     3  C    1.546807
     4  C   -0.617785
     5  C    0.056067
     6  C   -0.453444
     7  C    0.321926
     8  C   -1.218471
     9  O   -0.075835
    10  H    0.354393
    11  H    0.264548
    12  H    0.270352
    13  H    0.254125
    14  H    0.277110
    15  H    0.135288
    16  H    0.323121
 Sum of Mulliken charges =   1.00000

 Dipole moment (field-independent basis, Debye):
    X=             -2.4239    Y=              1.2956    Z=             -0.2868  Tot=              2.7634
 Quadrupole moment (field-independent basis, Debye-Ang):
   XX=            -19.1558   YY=            -35.3520   ZZ=            -53.1563
   XY=              0.0475   XZ=              0.4185   YZ=             -0.0979

  Exact polarizability: 120.271   0.300  87.291  -0.084   0.501  42.744
 Approx polarizability: 148.567   0.549 118.771  -0.226   0.673  56.546

                      1                      2                      3
                      A                      A                      A
 Frequencies --     48.8951               143.6427               231.5463
 Red. masses --      4.4036                 4.4356                 4.8564
 Frc consts  --      0.0062                 0.0539                 0.1534
 IR Inten    --      4.9240                 2.1006                 2.2304

                      4                      5                      6
                      A                      A                      A
 Frequencies --    387.6293               398.3502               407.7069
 Red. masses --      2.8826                 5.3937                 3.2749
 Frc consts  --      0.2552                 0.5043                 0.3207
 IR Inten    --      4.0484                 5.4490                 2.6512

                      7                      8                      9
                      A                      A                      A
 Frequencies --    502.7391               544.1090               620.1667
 Red. masses --      5.0485                 1.1533                 4.4040
 Frc consts  --      0.7518                 0.2012                 0.9980
 IR Inten    --      5.0559               186.4901                23.7034

                     10                     11                     12
                      A                      A                      A
 Frequencies --    621.1123               622.0715               668.9012
 Red. masses --      4.5916                 1.3390                 2.0585
 Frc consts  --      1.0436                 0.3053                 0.5426
 IR Inten    --     21.5127                47.1438                14.9209

                     13                     14                     15
                      A                      A                      A
 Frequencies --    735.5194               793.3093               807.2670
 Red. masses --      2.1259                 4.6189                 2.7969
 Frc consts  --      0.6776                 1.7127                 1.0739
 IR Inten    --    126.9014                15.2261                 4.6884

                     16                     17                     18
                      A                      A                      A
 Frequencies --    852.6181               967.3206              1013.0336
 Red. masses --      1.2824                 1.2982                 5.6112
 Frc consts  --      0.5492                 0.7157                 3.3927
 IR Inten    --      1.1498                 0.5672                 8.4762

                     19                     20                     21
                      A                      A                      A
 Frequencies --   1019.4158              1049.9872              1056.1937
 Red. masses --      1.3737                 1.3514                 2.3602
 Frc consts  --      0.8411                 0.8778                 1.5513
 IR Inten    --      0.2294                 0.2867                 0.0786

                     22                     23                     24
                      A                      A                      A
 Frequencies --   1135.1134              1150.6471              1200.7373
 Red. masses --      1.5311                 1.8170                 1.1584
 Frc consts  --      1.1623                 1.4174                 0.9840
 IR Inten    --      9.2870                81.8578                26.7537

                     25                     26                     27
                      A                      A                      A
 Frequencies --   1206.6068              1210.6359              1236.6224
 Red. masses --      1.3485                 2.1210                 1.2076
 Frc consts  --      1.1567                 1.8315                 1.0880
 IR Inten    --    281.1300                57.6478                47.0378

                     28                     29                     30
                      A                      A                      A
 Frequencies --   1353.7768              1375.8290              1487.7369
 Red. masses --      1.9681                 2.5143                 2.4240
 Frc consts  --      2.1251                 2.8041                 3.1610
 IR Inten    --      5.6663                30.0570                 1.3950

                     31                     32                     33
                      A                      A                      A
 Frequencies --   1521.6207              1584.9879              1604.9903
 Red. masses --      2.0857                 5.0194                 5.2307
 Frc consts  --      2.8452                 7.4295                 7.9388
 IR Inten    --    130.8524               617.5929               542.7975

                     34                     35                     36
                      A                      A                      A
 Frequencies --   1657.8593              1662.7718              3186.7956
 Red. masses --      6.1246                 5.5061                 1.0914
 Frc consts  --      9.9179                 8.9694                 6.5301
 IR Inten    --     89.9005                72.3122                 1.9326

                     37                     38                     39
                      A                      A                      A
 Frequencies --   3220.7792              3232.9021              3239.7554
 Red. masses --      1.0906                 1.0916                 1.0962
 Frc consts  --      6.6655                 6.7220                 6.7787
 IR Inten    --      0.1038                 2.0808                 4.9373

                     40                     41                     42
                      A                      A                      A
 Frequencies --   3244.2847              3752.9390              3809.9756
 Red. masses --      1.0991                 1.0660                 1.0667
 Frc consts  --      6.8160                 8.8458                 9.1226
 IR Inten    --      2.6836               441.7367               150.6261

 - Thermochemistry -
 -------------------
 Temperature     0.001 Kelvin.  Pressure   1.00000 Atm.
 Atom     1 has atomic number  8 and mass  15.99491

 Molecular mass:   123.04460 amu.
 Principal axes and moments of inertia in atomic units:
                           1         2         3
     Eigenvalues --   472.893201480.897061949.72543
           X            1.00000  -0.00055   0.00044
           Y            0.00055   1.00000   0.00254
           Z           -0.00045  -0.00254   1.00000
 This molecule is an asymmetric top.
 Rotational symmetry number  1.
 Warning -- assumption of classical behavior for rotation
           may cause significant error
 Rotational temperatures (Kelvin)      0.18316     0.05849     0.04442
 Rotational constants (GHZ):           3.81638     1.21868     0.92564
 Zero-point vibrational energy     338357.2 (Joules/Mol)
                                   80.86931 (Kcal/Mol)
 Vibrational temperatures:     70.35   206.67   333.14   557.71   573.14
          (Kelvin)            586.60   723.33   782.85   892.28   893.64
                              895.02   962.40  1058.25  1141.40  1161.48
                             1226.73  1391.76  1457.53  1466.71  1510.70
                             1519.63  1633.18  1655.52  1727.59  1736.04
                             1741.84  1779.22  1947.78  1979.51  2140.52
                             2189.27  2280.44  2309.22  2385.29  2392.36
                             4585.09  4633.98  4651.42  4661.29  4667.80
                             5399.64  5481.71

 Zero-point correction=                           0.128873 (Hartree/Particle)
 Thermal correction to Energy=                    0.128873
 Thermal correction to Enthalpy=                  0.128873
 Thermal correction to Gibbs Free Energy=         0.128874
 Sum of electronic and zero-point Energies=           -420.966053
 Sum of electronic and thermal Energies=              -420.966053
 Sum of electronic and thermal Enthalpies=            -420.966053
 Sum of electronic and thermal Free Energies=         -420.966053

                     E (Thermal)             CV                S
                      KCal/Mol        Cal/Mol-Kelvin    Cal/Mol-Kelvin
 Total                   80.869              5.962            -31.158
 Electronic               0.000              0.000              0.000
 Translational            0.000              2.981            -22.287
 Rotational               0.000              2.981             -8.871
 Vibrational             80.869              0.000              0.000

 Optimization completed.
    -- Stationary point found.
 Normal termination of Gaussian 16 at Sun Oct 13 20:05:21 2019.
