 Gaussian 16, Revision A.03,
 Gaussian 16:  ES64L-G16RevA.03 25-Dec-2016

 -------------------------------------------------------------------
 #p opt freq m062x/6-311++g(d,p) geom=connectivity temperature=0.001
 -------------------------------------------------------------------

 -------------------
 Title Card Required
 -------------------
 Symbolic Z-matrix:
 Charge =  0 Multiplicity = 1

 SCF Done:  E(RM062X) =  -576.508850242     A.U. after   16 cycles
 SCF Done:  E(RM062X) =  -576.531410679     A.U. after   16 cycles
 SCF Done:  E(RM062X) =  -576.534592946     A.U. after   16 cycles
 SCF Done:  E(RM062X) =  -576.535368955     A.U. after   15 cycles
 SCF Done:  E(RM062X) =  -576.535605503     A.U. after   14 cycles
 SCF Done:  E(RM062X) =  -576.535625983     A.U. after   14 cycles
 SCF Done:  E(RM062X) =  -576.535689938     A.U. after   13 cycles
 SCF Done:  E(RM062X) =  -576.535702313     A.U. after   13 cycles
 SCF Done:  E(RM062X) =  -576.535703364     A.U. after   13 cycles
 Optimization completed.
    -- Stationary point found.
 Normal termination of Gaussian 16 at Mon Oct 14 10:35:14 2019.

 ----------------------------------------------------------------------
 #P Geom=AllCheck Guess=TCheck SCRF=Check GenChk RM062X/6-311++G(d,p) F
 req
 ----------------------------------------------------------------------

 Structure from the checkpoint file:  "15.chk"
 -------------------
 Title Card Required
 -------------------
 Charge =  0 Multiplicity = 1

                         Standard orientation:
 ---------------------------------------------------------------------
 Center     Atomic      Atomic             Coordinates (Angstroms)
 Number     Number       Type             X           Y           Z
 ---------------------------------------------------------------------
      1          8           0        0.000032    2.320842   -0.000039
      2          6           0       -0.000074    1.109779   -0.000089
      3          6           0       -1.295214    0.354378    0.029888
      4          6           0       -1.419801   -0.885663    0.658914
      5          6           0       -2.658674   -1.515156    0.717396
      6          6           0       -3.771006   -0.918154    0.133334
      7          6           0       -3.651003    0.320394   -0.493167
      8          6           0       -2.420385    0.960456   -0.532918
      9          6           0        1.295086    0.354185   -0.029970
     10          6           0        1.419885   -0.885784   -0.658897
     11          6           0        2.658930   -1.515106   -0.717380
     12          6           0        3.771120   -0.918002   -0.133313
     13          6           0        3.650875    0.320555    0.493277
     14          6           0        2.420209    0.960421    0.532953
     15          1           0       -0.555412   -1.347052    1.122089
     16          1           0       -2.755480   -2.470122    1.219713
     17          1           0       -4.733516   -1.414703    0.171321
     18          1           0       -4.519003    0.787176   -0.943067
     19          1           0       -2.309073    1.934326   -0.994694
     20          1           0        0.555660   -1.347433   -1.122165
     21          1           0        2.755778   -2.470030   -1.219778
     22          1           0        4.733683   -1.414441   -0.171282
     23          1           0        4.518755    0.787459    0.943279
     24          1           0        2.308662    1.934263    0.994716
 ---------------------------------------------------------------------

 SCF Done:  E(RM062X) =  -576.535703364     A.U. after    1 cycles

 The electronic state is 1-A.
 Alpha  occ. eigenvalues --  -19.61945 -10.63837 -10.56164 -10.56163 -10.56010
 Alpha  occ. eigenvalues --  -10.56010 -10.55871 -10.55870 -10.55621 -10.55620
 Alpha  occ. eigenvalues --  -10.55586 -10.55585 -10.55466 -10.55465  -1.17664
 Alpha  occ. eigenvalues --   -0.98078  -0.97461  -0.88367  -0.86005  -0.85794
 Alpha  occ. eigenvalues --   -0.85379  -0.74931  -0.70896  -0.70488  -0.69309
 Alpha  occ. eigenvalues --   -0.64697  -0.61721  -0.58914  -0.55420  -0.54448
 Alpha  occ. eigenvalues --   -0.53493  -0.52694  -0.51519  -0.50501  -0.50259
 Alpha  occ. eigenvalues --   -0.50249  -0.47715  -0.45327  -0.43646  -0.43429
 Alpha  occ. eigenvalues --   -0.42983  -0.41348  -0.41275  -0.33671  -0.32418
 Alpha  occ. eigenvalues --   -0.32067  -0.31898  -0.31528
 Alpha virt. eigenvalues --   -0.03991  -0.00721  -0.00115   0.00170   0.00573
 Alpha virt. eigenvalues --    0.01120   0.01352   0.01590   0.01967   0.02549
 Alpha virt. eigenvalues --    0.03534   0.03890   0.04580   0.05727   0.06105

 Mulliken charges:
               1
     1  O   -0.189368
     2  C   -1.624721
     3  C    1.307924
     4  C   -0.764438
     5  C   -0.333736
     6  C   -0.312191
     7  C   -0.388660
     8  C    0.329145
     9  C    1.308014
    10  C   -0.764212
    11  C   -0.333788
    12  C   -0.312080
    13  C   -0.388876
    14  C    0.328970
    15  H    0.194515
    16  H    0.216812
    17  H    0.197947
    18  H    0.213314
    19  H    0.246411
    20  H    0.194538
    21  H    0.216794
    22  H    0.197950
    23  H    0.213308
    24  H    0.246428
 Sum of Mulliken charges =  -0.00000

 Dipole moment (field-independent basis, Debye):
    X=             -0.0006    Y=             -3.1299    Z=             -0.0001  Tot=              3.1299
 Quadrupole moment (field-independent basis, Debye-Ang):
   XX=            -65.7123   YY=            -83.7512   ZZ=            -83.3524
   XY=             -0.0004   XZ=              2.8807   YZ=              0.0005

  Exact polarizability: 202.305   0.001 145.315   9.718   0.001  95.708
 Approx polarizability: 224.892   0.002 208.486  15.809   0.002 133.212

                      1                      2                      3
                      A                      A                      A
 Frequencies --     44.6025                68.8028                95.5854
 Red. masses --      4.6485                 4.1184                 4.3746
 Frc consts  --      0.0054                 0.0115                 0.0235
 IR Inten    --      1.4613                 0.3302                 0.5217

                      4                      5                      6
                      A                      A                      A
 Frequencies --    138.8565               217.9099               237.2318
 Red. masses --      6.1385                 4.7344                 5.0741
 Frc consts  --      0.0697                 0.1325                 0.1683
 IR Inten    --      1.3920                 0.0300                 3.5462

                      7                      8                      9
                      A                      A                      A
 Frequencies --    291.0707               377.2957               410.9207
 Red. masses --      5.6681                 6.7612                 2.9024
 Frc consts  --      0.2829                 0.5671                 0.2888
 IR Inten    --      0.0313                 5.7282                 0.5419

                     10                     11                     12
                      A                      A                      A
 Frequencies --    422.4073               446.7815               448.2318
 Red. masses --      2.9567                 4.1682                 4.4765
 Frc consts  --      0.3108                 0.4902                 0.5299
 IR Inten    --      0.0120                 1.7096                 1.1528

                     13                     14                     15
                      A                      A                      A
 Frequencies --    574.4756               627.4331               630.1438
 Red. masses --      4.9896                 6.3817                 6.4124
 Frc consts  --      0.9702                 1.4802                 1.5002
 IR Inten    --      0.2031                 0.2956                 0.0505

                     16                     17                     18
                      A                      A                      A
 Frequencies --    653.8603               701.0984               716.2760
 Red. masses --      6.2223                 4.5805                 2.1851
 Frc consts  --      1.5674                 1.3265                 0.6605
 IR Inten    --     39.1195                 0.4137                10.4700

                     19                     20                     21
                      A                      A                      A
 Frequencies --    723.3940               736.9537               786.6333
 Red. masses --      1.3641                 4.2473                 1.7521
 Frc consts  --      0.4206                 1.3591                 0.6388
 IR Inten    --    140.4633                 3.8491                19.2454

                     22                     23                     24
                      A                      A                      A
 Frequencies --    839.7682               881.6623               885.2316
 Red. masses --      2.9088                 1.2520                 1.2422
 Frc consts  --      1.2086                 0.5734                 0.5735
 IR Inten    --      8.8656                 2.3225                 0.3972

                     25                     26                     27
                      A                      A                      A
 Frequencies --    945.4793               969.9842               976.5595
 Red. masses --      4.0018                 1.3553                 1.7258
 Frc consts  --      2.1077                 0.7513                 0.9697
 IR Inten    --     64.2667                 0.3436                15.3062

                     28                     29                     30
                      A                      A                      A
 Frequencies --   1015.2930              1018.8141              1020.0414
 Red. masses --      1.4083                 1.5331                 4.0180
 Frc consts  --      0.8553                 0.9376                 2.4632
 IR Inten    --      2.4304                 0.1270                 0.0458

                     31                     32                     33
                      A                      A                      A
 Frequencies --   1020.1931              1029.7980              1030.4257
 Red. masses --      5.4109                 1.3032                 1.2952
 Frc consts  --      3.3181                 0.8143                 0.8102
 IR Inten    --      0.1895                 0.5980                 0.0169

                     34                     35                     36
                      A                      A                      A
 Frequencies --   1059.8187              1063.5217              1112.0606
 Red. masses --      2.2999                 1.9544                 1.5082
 Frc consts  --      1.5220                 1.3024                 1.0989
 IR Inten    --      0.5658                 2.8393                 4.1857

                     37                     38                     39
                      A                      A                      A
 Frequencies --   1115.4780              1178.0507              1180.0019
 Red. masses --      1.4990                 1.4244                 1.1424
 Frc consts  --      1.0990                 1.1647                 0.9372
 IR Inten    --      6.4860                 4.5975                 0.3563

                     40                     41                     42
                      A                      A                      A
 Frequencies --   1183.6458              1203.4511              1208.7410
 Red. masses --      1.8660                 1.1195                 1.2092
 Frc consts  --      1.5403                 0.9553                 1.0409
 IR Inten    --      2.3736                21.5839                 0.2667

                     43                     44                     45
                      A                      A                      A
 Frequencies --   1306.2846              1330.1489              1334.5945
 Red. masses --      3.5189                 4.3233                 5.0839
 Frc consts  --      3.5378                 4.5067                 5.3352
 IR Inten    --    199.7183                 2.3652                91.7809

                     46                     47                     48
                      A                      A                      A
 Frequencies --   1351.0522              1351.3746              1487.9020
 Red. masses --      1.4369                 1.4866                 2.3353
 Frc consts  --      1.5453                 1.5996                 3.0461
 IR Inten    --      1.1925                17.9888                23.2660

                     49                     50                     51
                      A                      A                      A
 Frequencies --   1488.4348              1531.6523              1537.7790
 Red. masses --      2.3313                 2.2774                 2.4319
 Frc consts  --      3.0431                 3.1479                 3.3883
 IR Inten    --      5.2911                 0.2529                 3.4820

                     52                     53                     54
                      A                      A                      A
 Frequencies --   1653.2104              1653.4858              1673.5262
 Red. masses --      6.1422                 6.0036                 5.9299
 Frc consts  --      9.8907                 9.6709                 9.7851
 IR Inten    --      5.5651                 3.8348                 9.1582

                     55                     56                     57
                      A                      A                      A
 Frequencies --   1675.1229              1796.9508              3200.6582
 Red. masses --      5.9020                12.8459                 1.0861
 Frc consts  --      9.7576                24.4391                 6.5556
 IR Inten    --     20.4527               222.1453                 0.9128

                     58                     59                     60
                      A                      A                      A
 Frequencies --   3201.1081              3207.3722              3208.7532
 Red. masses --      1.0859                 1.0892                 1.0889
 Frc consts  --      6.5563                 6.6019                 6.6054
 IR Inten    --      0.0948                 1.2677                 3.3256

                     61                     62                     63
                      A                      A                      A
 Frequencies --   3215.4951              3216.1357              3223.9950
 Red. masses --      1.0926                 1.0925                 1.0953
 Frc consts  --      6.6558                 6.6580                 6.7078
 IR Inten    --     11.5263                 1.1176                 2.4934

                     64                     65                     66
                      A                      A                      A
 Frequencies --   3224.3196              3229.1112              3229.4065
 Red. masses --      1.0953                 1.0983                 1.0984
 Frc consts  --      6.7089                 6.7473                 6.7492
 IR Inten    --      6.1655                15.0864                 1.4560

 - Thermochemistry -
 -------------------
 Temperature     0.001 Kelvin.  Pressure   1.00000 Atm.
 Atom     1 has atomic number  8 and mass  15.99491

 Molecular mass:   182.07317 amu.
 Principal axes and moments of inertia in atomic units:
                           1         2         3
     Eigenvalues --  1059.151824350.815515086.80837
           X            1.00000   0.00000   0.00310
           Y           -0.00000   1.00000   0.00000
           Z           -0.00310  -0.00000   1.00000
 This molecule is an asymmetric top.
 Rotational symmetry number  1.
 Warning -- assumption of classical behavior for rotation
           may cause significant error
 Rotational temperatures (Kelvin)      0.08178     0.01991     0.01703
 Rotational constants (GHZ):           1.70395     0.41481     0.35479
 Zero-point vibrational energy     506115.2 (Joules/Mol)
                                  120.96444 (Kcal/Mol)
 Vibrational temperatures:     64.17    98.99   137.53   199.78   313.52
          (Kelvin)            341.32   418.79   542.84   591.22   607.75
                              642.82   644.91   826.54   902.74   906.64
                              940.76  1008.72  1030.56  1040.80  1060.31
                             1131.79  1208.24  1268.52  1273.65  1360.33
                             1395.59  1405.05  1460.78  1465.85  1467.61
                             1467.83  1481.65  1482.55  1524.84  1530.17
                             1600.01  1604.92  1694.95  1697.76  1703.00
                             1731.50  1739.11  1879.45  1913.79  1920.18
                             1943.86  1944.33  2140.76  2141.53  2203.71
                             2212.52  2378.60  2379.00  2407.83  2410.13
                             2585.41  4605.03  4605.68  4614.69  4616.68
                             4626.38  4627.30  4638.61  4639.08  4645.97
                             4646.40

 Zero-point correction=                           0.192769 (Hartree/Particle)
 Thermal correction to Energy=                    0.192769
 Thermal correction to Enthalpy=                  0.192769
 Thermal correction to Gibbs Free Energy=         0.192769
 Sum of electronic and zero-point Energies=           -576.342934
 Sum of electronic and thermal Energies=              -576.342934
 Sum of electronic and thermal Enthalpies=            -576.342934
 Sum of electronic and thermal Free Energies=         -576.342934

                     E (Thermal)             CV                S
                      KCal/Mol        Cal/Mol-Kelvin    Cal/Mol-Kelvin
 Total                  120.964              5.962            -27.166
 Electronic               0.000              0.000              0.000
 Translational            0.000              2.981            -21.119
 Rotational               0.000              2.981             -6.046
 Vibrational            120.964              0.000              0.000

                           ! Non-Optimized Parameters !
 Normal termination of Gaussian 16 at Mon Oct 14 10:40:13 2019.
