 Gaussian 16, Revision A.03,
 Gaussian 16:  ES64L-G16RevA.03 25-Dec-2016

 -------------------------------------------------------------------
 #p opt freq m062x/6-311++g(d,p) geom=connectivity temperature=0.001
 -------------------------------------------------------------------

 -------------------
 Title Card Required
 -------------------
 Symbolic Z-matrix:
 Charge =  1 Multiplicity = 1

 SCF Done:  E(RM062X) =  -576.847403255     A.U. after   17 cycles
 SCF Done:  E(RM062X) =  -576.874462279     A.U. after   16 cycles
 SCF Done:  E(RM062X) =  -576.879057972     A.U. after   16 cycles
 SCF Done:  E(RM062X) =  -576.881730587     A.U. after   15 cycles
 SCF Done:  E(RM062X) =  -576.882217039     A.U. after   14 cycles
 SCF Done:  E(RM062X) =  -576.882362983     A.U. after   12 cycles
 SCF Done:  E(RM062X) =  -576.882374073     A.U. after   13 cycles
 SCF Done:  E(RM062X) =  -576.882375122     A.U. after   10 cycles
 SCF Done:  E(RM062X) =  -576.882375491     A.U. after   10 cycles
 SCF Done:  E(RM062X) =  -576.882375531     A.U. after    9 cycles
 Optimization completed.
    -- Stationary point found.
 Normal termination of Gaussian 16 at Mon Oct 14 10:35:58 2019.

 ----------------------------------------------------------------------
 #P Geom=AllCheck Guess=TCheck SCRF=Check GenChk RM062X/6-311++G(d,p) F
 req
 ----------------------------------------------------------------------

 Structure from the checkpoint file:  "15_p.chk"
 -------------------
 Title Card Required
 -------------------
 Charge =  1 Multiplicity = 1

                         Standard orientation:
 ---------------------------------------------------------------------
 Center     Atomic      Atomic             Coordinates (Angstroms)
 Number     Number       Type             X           Y           Z
 ---------------------------------------------------------------------
      1          8           0        0.060793    2.273195    0.114965
      2          6           0        0.019331    0.975155    0.046842
      3          6           0       -1.269805    0.312070    0.036018
      4          6           0       -1.445366   -0.909881    0.707032
      5          6           0       -2.700110   -1.496850    0.739322
      6          6           0       -3.771233   -0.888516    0.088827
      7          6           0       -3.601311    0.319716   -0.587995
      8          6           0       -2.360152    0.930278   -0.604499
      9          6           0        1.287838    0.312221   -0.013666
     10          6           0        1.389895   -0.987712   -0.551813
     11          6           0        2.627448   -1.599382   -0.627930
     12          6           0        3.761068   -0.931260   -0.165209
     13          6           0        3.671010    0.359609    0.360782
     14          6           0        2.444611    0.989897    0.427082
     15          1           0       -0.615606   -1.360055    1.238096
     16          1           0       -2.846458   -2.425070    1.276767
     17          1           0       -4.747665   -1.357608    0.108843
     18          1           0       -4.435276    0.775912   -1.105835
     19          1           0       -2.222906    1.847216   -1.169763
     20          1           0        0.512731   -1.483733   -0.947797
     21          1           0        2.716907   -2.589021   -1.056893
     22          1           0        4.727755   -1.417981   -0.222312
     23          1           0        4.560303    0.865138    0.714476
     24          1           0        2.358264    1.987998    0.837565
     25          1           0       -0.813741    2.659589    0.278372
 ---------------------------------------------------------------------

 SCF Done:  E(RM062X) =  -576.882375531     A.U. after    1 cycles

 The electronic state is 1-A.
 Alpha  occ. eigenvalues --  -19.87581 -10.84707 -10.73011 -10.72341 -10.71867
 Alpha  occ. eigenvalues --  -10.71591 -10.71429 -10.71076 -10.70576 -10.70523
 Alpha  occ. eigenvalues --  -10.69991 -10.69829 -10.69406 -10.69321  -1.42385
 Alpha  occ. eigenvalues --   -1.14220  -1.12543  -1.05934  -1.01643  -1.00965
 Alpha  occ. eigenvalues --   -1.00254  -0.94297  -0.88199  -0.86098  -0.84378
 Alpha  occ. eigenvalues --   -0.83592  -0.79156  -0.76963  -0.73062  -0.71328
 Alpha  occ. eigenvalues --   -0.71103  -0.68569  -0.67791  -0.66483  -0.65826
 Alpha  occ. eigenvalues --   -0.65148  -0.64469  -0.62668  -0.60102  -0.59565
 Alpha  occ. eigenvalues --   -0.57785  -0.56724  -0.56168  -0.55482  -0.49001
 Alpha  occ. eigenvalues --   -0.47128  -0.46508  -0.46384
 Alpha virt. eigenvalues --   -0.24053  -0.14888  -0.14008  -0.12720  -0.12025
 Alpha virt. eigenvalues --   -0.09978  -0.09181  -0.08790  -0.08075  -0.07799
 Alpha virt. eigenvalues --   -0.07273  -0.07091  -0.06493  -0.05905  -0.05513

 Mulliken charges:
               1
     1  O   -0.024999
     2  C   -0.310514
     3  C    0.931973
     4  C   -0.913722
     5  C   -0.169849
     6  C   -0.343838
     7  C   -0.338302
     8  C    0.037996
     9  C    0.871501
    10  C   -1.172041
    11  C   -0.189248
    12  C   -0.367202
    13  C   -0.376011
    14  C    0.554954
    15  H    0.216957
    16  H    0.269496
    17  H    0.243711
    18  H    0.256551
    19  H    0.264841
    20  H    0.203077
    21  H    0.263389
    22  H    0.247694
    23  H    0.254982
    24  H    0.269450
    25  H    0.319155
 Sum of Mulliken charges =   1.00000

 Dipole moment (field-independent basis, Debye):
    X=             -0.9976    Y=              0.5592    Z=              0.2579  Tot=              1.1723
 Quadrupole moment (field-independent basis, Debye-Ang):
   XX=            -30.9869   YY=            -60.3641   ZZ=            -79.4512
   XY=             -3.3614   XZ=              2.2493   YZ=              0.4392

  Exact polarizability: 242.153  -2.539 142.161   6.583  -0.824  88.600
 Approx polarizability: 270.866  -2.967 205.637  12.350  -1.777 124.271

                      1                      2                      3
                      A                      A                      A
 Frequencies --     56.3513                80.4480                92.9339
 Red. masses --      4.3137                 4.2600                 4.1600
 Frc consts  --      0.0081                 0.0162                 0.0212
 IR Inten    --      1.9337                 0.1267                 0.0817

                      4                      5                      6
                      A                      A                      A
 Frequencies --    142.3178               215.2794               253.8310
 Red. masses --      5.0577                 4.6450                 4.7050
 Frc consts  --      0.0604                 0.1268                 0.1786
 IR Inten    --      5.0089                 1.2879                 1.2124

                      7                      8                      9
                      A                      A                      A
 Frequencies --    303.4193               372.7960               401.7735
 Red. masses --      5.5786                 4.5824                 2.8476
 Frc consts  --      0.3026                 0.3752                 0.2708
 IR Inten    --      0.3666                 4.5911                 6.0061

                     10                     11                     12
                      A                      A                      A
 Frequencies --    418.0095               434.3382               442.4202
 Red. masses --      2.9358                 3.7274                 4.3548
 Frc consts  --      0.3022                 0.4143                 0.5022
 IR Inten    --      1.2879                 9.6157                 2.1953

                     13                     14                     15
                      A                      A                      A
 Frequencies --    567.2743               620.6618               623.3348
 Red. masses --      5.2232                 6.3775                 6.4169
 Frc consts  --      0.9903                 1.4475                 1.4690
 IR Inten    --      1.0557                 2.1682                 2.3418

                     16                     17                     18
                      A                      A                      A
 Frequencies --    631.6203               666.7830               690.6898
 Red. masses --      5.3175                 1.5931                 1.5749
 Frc consts  --      1.2499                 0.4173                 0.4426
 IR Inten    --     46.3938                82.1890                15.4549

                     19                     20                     21
                      A                      A                      A
 Frequencies --    700.9552               728.3172               743.5665
 Red. masses --      2.3699                 1.6828                 5.0196
 Frc consts  --      0.6861                 0.5259                 1.6352
 IR Inten    --      8.8722               127.5356                 2.9644

                     22                     23                     24
                      A                      A                      A
 Frequencies --    796.9061               831.2823               872.0426
 Red. masses --      1.6433                 2.8344                 1.2565
 Frc consts  --      0.6149                 1.1540                 0.5630
 IR Inten    --     30.3222                13.3347                 9.8194

                     25                     26                     27
                      A                      A                      A
 Frequencies --    877.6001               928.2544               985.1815
 Red. masses --      1.2406                 3.9734                 1.3592
 Frc consts  --      0.5629                 2.0172                 0.7773
 IR Inten    --      5.3134                21.9571                 0.2281

                     28                     29                     30
                      A                      A                      A
 Frequencies --    994.8574              1012.4403              1014.1985
 Red. masses --      1.3431                 5.4791                 5.4623
 Frc consts  --      0.7832                 3.3090                 3.3103
 IR Inten    --      1.4953                24.2528                 2.3865

                     31                     32                     33
                      A                      A                      A
 Frequencies --   1024.6776              1028.1991              1048.7076
 Red. masses --      1.3799                 1.3791                 1.3389
 Frc consts  --      0.8536                 0.8590                 0.8676
 IR Inten    --      1.9447                 0.6642                 0.3189

                     34                     35                     36
                      A                      A                      A
 Frequencies --   1048.8270              1055.4442              1058.1302
 Red. masses --      1.3492                 2.2344                 2.1405
 Frc consts  --      0.8745                 1.4665                 1.4120
 IR Inten    --      0.4727                 0.2209                 0.9352

                     37                     38                     39
                      A                      A                      A
 Frequencies --   1128.8897              1131.5611              1194.7562
 Red. masses --      1.5197                 1.5247                 1.1456
 Frc consts  --      1.1411                 1.1503                 0.9635
 IR Inten    --      2.7741                12.6002                 9.8959

                     40                     41                     42
                      A                      A                      A
 Frequencies --   1195.3393              1200.1186              1211.5457
 Red. masses --      1.1217                 1.7648                 1.2473
 Frc consts  --      0.9443                 1.4976                 1.0787
 IR Inten    --      2.7434                51.7321                98.5864

                     43                     44                     45
                      A                      A                      A
 Frequencies --   1223.8277              1244.2160              1334.7490
 Red. masses --      1.4940                 1.4700                 2.4971
 Frc consts  --      1.3184                 1.3407                 2.6211
 IR Inten    --      5.7228               187.2869                18.9883

                     46                     47                     48
                      A                      A                      A
 Frequencies --   1342.0464              1364.3135              1369.9875
 Red. masses --      2.1243                 1.7728                 2.8156
 Frc consts  --      2.2542                 1.9442                 3.1135
 IR Inten    --     30.8861                13.1668                21.1489

                     49                     50                     51
                      A                      A                      A
 Frequencies --   1450.2647              1466.1652              1497.3233
 Red. masses --      3.0145                 2.5359                 2.2479
 Frc consts  --      3.7357                 3.2118                 2.9694
 IR Inten    --    236.8086               185.1952               142.2209

                     52                     53                     54
                      A                      A                      A
 Frequencies --   1512.9777              1531.0578              1553.8990
 Red. masses --      2.9974                 2.5466                 3.3510
 Frc consts  --      4.0426                 3.5172                 4.7673
 IR Inten    --    197.6487                54.4342               493.6484

                     55                     56                     57
                      A                      A                      A
 Frequencies --   1632.7732              1639.7387              1655.8648
 Red. masses --      5.1783                 5.4648                 5.4901
 Frc consts  --      8.1338                 8.6572                 8.8691
 IR Inten    --     16.9880                 7.7242               291.0211

                     58                     59                     60
                      A                      A                      A
 Frequencies --   1665.0181              3190.7723              3217.8180
 Red. masses --      5.7264                 1.0913                 1.0895
 Frc consts  --      9.3534                 6.5460                 6.6469
 IR Inten    --     34.4450                 0.1615                 0.1409

                     61                     62                     63
                      A                      A                      A
 Frequencies --   3218.5058              3224.6358              3228.8081
 Red. masses --      1.0893                 1.0919                 1.0901
 Frc consts  --      6.6480                 6.6897                 6.6958
 IR Inten    --      0.1154                 0.1910                 0.0489

                     64                     65                     66
                      A                      A                      A
 Frequencies --   3231.4781              3234.9873              3239.5676
 Red. masses --      1.0921                 1.0955                 1.0992
 Frc consts  --      6.7191                 6.7547                 6.7968
 IR Inten    --      1.2781                 1.0476                 0.4166

                     67                     68                     69
                      A                      A                      A
 Frequencies --   3240.6668              3243.5144              3777.6498
 Red. masses --      1.0967                 1.0993                 1.0660
 Frc consts  --      6.7856                 6.8140                 8.9627
 IR Inten    --      2.2284                 0.2348               193.5508

 - Thermochemistry -
 -------------------
 Temperature     0.001 Kelvin.  Pressure   1.00000 Atm.
 Atom     1 has atomic number  8 and mass  15.99491

 Molecular mass:   183.08099 amu.
 Principal axes and moments of inertia in atomic units:
                           1         2         3
     Eigenvalues --  1071.474804323.995425087.73303
           X            0.99999  -0.00150   0.00282
           Y            0.00150   1.00000  -0.00217
           Z           -0.00281   0.00217   0.99999
 This molecule is an asymmetric top.
 Rotational symmetry number  1.
 Warning -- assumption of classical behavior for rotation
           may cause significant error
 Rotational temperatures (Kelvin)      0.08084     0.02003     0.01702
 Rotational constants (GHZ):           1.68435     0.41738     0.35472
 Zero-point vibrational energy     540465.1 (Joules/Mol)
                                  129.17426 (Kcal/Mol)
 Vibrational temperatures:     81.08   115.75   133.71   204.76   309.74
          (Kelvin)            365.21   436.55   536.37   578.06   601.42
                              624.92   636.54   816.18   892.99   896.84
                              908.76   959.35   993.75  1008.52  1047.89
                             1069.83  1146.57  1196.03  1254.67  1262.67
                             1335.55  1417.46  1431.38  1456.68  1459.21
                             1474.28  1479.35  1508.86  1509.03  1518.55
                             1522.41  1624.22  1628.06  1718.99  1719.83
                             1726.70  1743.14  1760.82  1790.15  1920.41
                             1930.91  1962.94  1971.11  2086.61  2109.48
                             2154.31  2176.84  2202.85  2235.71  2349.20
                             2359.22  2382.42  2395.59  4590.81  4629.72
                             4630.71  4639.53  4645.53  4649.38  4654.43
                             4661.02  4662.60  4666.69  5435.20

 Zero-point correction=                           0.205852 (Hartree/Particle)
 Thermal correction to Energy=                    0.205852
 Thermal correction to Enthalpy=                  0.205852
 Thermal correction to Gibbs Free Energy=         0.205852
 Sum of electronic and zero-point Energies=           -576.676523
 Sum of electronic and thermal Energies=              -576.676523
 Sum of electronic and thermal Enthalpies=            -576.676523
 Sum of electronic and thermal Free Energies=         -576.676523

                     E (Thermal)             CV                S
                      KCal/Mol        Cal/Mol-Kelvin    Cal/Mol-Kelvin
 Total                  129.174              5.962            -27.144
 Electronic               0.000              0.000              0.000
 Translational            0.000              2.981            -21.103
 Rotational               0.000              2.981             -6.041
 Vibrational            129.174              0.000              0.000

 Optimization completed.
    -- Stationary point found.
 Normal termination of Gaussian 16 at Mon Oct 14 10:41:16 2019.
