 Gaussian 16, Revision A.03,
 Gaussian 16:  ES64L-G16RevA.03 25-Dec-2016

 -------------------------------------------------------------------
 #P opt freq m062x/6-311++g(d,p) geom=connectivity temperature=0.001
 -------------------------------------------------------------------

 -------------------
 Title Card Required
 -------------------
 Symbolic Z-matrix:
 Charge =  0 Multiplicity = 1

 SCF Done:  E(RM062X) =  -193.112676166     A.U. after   11 cycles
 SCF Done:  E(RM062X) =  -193.117785067     A.U. after   11 cycles
 SCF Done:  E(RM062X) =  -193.118264194     A.U. after   10 cycles
 SCF Done:  E(RM062X) =  -193.118408245     A.U. after   11 cycles
 SCF Done:  E(RM062X) =  -193.118645449     A.U. after   11 cycles
 SCF Done:  E(RM062X) =  -193.119102249     A.U. after   12 cycles
 SCF Done:  E(RM062X) =  -193.119377218     A.U. after   12 cycles
 SCF Done:  E(RM062X) =  -193.119476124     A.U. after   11 cycles
 SCF Done:  E(RM062X) =  -193.119517173     A.U. after    9 cycles
 SCF Done:  E(RM062X) =  -193.119524311     A.U. after   10 cycles
 SCF Done:  E(RM062X) =  -193.119535606     A.U. after   10 cycles
 SCF Done:  E(RM062X) =  -193.119550309     A.U. after   10 cycles
 SCF Done:  E(RM062X) =  -193.119560559     A.U. after   10 cycles
 SCF Done:  E(RM062X) =  -193.119562543     A.U. after   10 cycles
 SCF Done:  E(RM062X) =  -193.119562690     A.U. after    9 cycles
 SCF Done:  E(RM062X) =  -193.119562741     A.U. after    9 cycles
 SCF Done:  E(RM062X) =  -193.119562740     A.U. after    7 cycles
 Optimization completed.
    -- Stationary point found.
 Normal termination of Gaussian 16 at Sun Oct 13 20:07:04 2019.

 ----------------------------------------------------------------------
 #P Geom=AllCheck Guess=TCheck SCRF=Check GenChk RM062X/6-311++G(d,p) F
 req
 ----------------------------------------------------------------------

 Structure from the checkpoint file:  "16.chk"
 -------------------
 Title Card Required
 -------------------
 Charge =  0 Multiplicity = 1

                         Standard orientation:
 ---------------------------------------------------------------------
 Center     Atomic      Atomic             Coordinates (Angstroms)
 Number     Number       Type             X           Y           Z
 ---------------------------------------------------------------------
      1          6           0       -1.285376   -0.611772   -0.001611
      2          6           0        0.000006    0.186694    0.000035
      3          6           0        1.285367   -0.611781    0.001618
      4          8           0        0.000007    1.391805   -0.000005
      5          1           0       -1.363054   -1.179296    0.929729
      6          1           0       -2.138043    0.057493   -0.094668
      7          1           0       -1.282224   -1.334806   -0.820841
      8          1           0        1.282188   -1.335036    0.820645
      9          1           0        1.363038   -1.179074   -0.929875
     10          1           0        2.138056    0.057436    0.094803
 ---------------------------------------------------------------------

 SCF Done:  E(RM062X) =  -193.119562740     A.U. after    1 cycles

 The electronic state is 1-A.
 Alpha  occ. eigenvalues --  -19.61763 -10.63500 -10.54379 -10.54377  -1.17490
 Alpha  occ. eigenvalues --   -0.87245  -0.80854  -0.61870  -0.54225  -0.53800
 Alpha  occ. eigenvalues --   -0.53374  -0.47233  -0.47031  -0.44876  -0.42329
 Alpha  occ. eigenvalues --   -0.32568
 Alpha virt. eigenvalues --   -0.00705   0.01296   0.01802   0.03411   0.03614
 Alpha virt. eigenvalues --    0.05053   0.05227   0.05817   0.08063   0.09342
 Alpha virt. eigenvalues --    0.10415   0.11285   0.12368   0.12694   0.12763

 Mulliken charges:
               1
     1  C   -0.524198
     2  C    0.289799
     3  C   -0.524196
     4  O   -0.277693
     5  H    0.171158
     6  H    0.184025
     7  H    0.162958
     8  H    0.162952
     9  H    0.171171
    10  H    0.184024
 Sum of Mulliken charges =  -0.00000

 Dipole moment (field-independent basis, Debye):
    X=              0.0000    Y=             -3.1301    Z=             -0.0000  Tot=              3.1301
 Quadrupole moment (field-independent basis, Debye-Ang):
   XX=            -23.7345   YY=            -29.3720   ZZ=            -24.4190
   XY=             -0.0000   XZ=             -0.0402   YZ=              0.0000

  Exact polarizability:  41.182   0.000  44.537  -0.115   0.000  31.242
 Approx polarizability:  41.021   0.000  54.233  -0.166  -0.000  37.599

                      1                      2                      3
                      A                      A                      A
 Frequencies --     39.7759               135.8579               382.6535
 Red. masses --      1.0181                 1.1283                 2.1857
 Frc consts  --      0.0009                 0.0123                 0.1886
 IR Inten    --      0.0042                 0.0672                 1.4829

                      4                      5                      6
                      A                      A                      A
 Frequencies --    490.4346               541.9403               804.5720
 Red. masses --      1.9823                 3.5261                 3.4533
 Frc consts  --      0.2809                 0.6102                 1.3171
 IR Inten    --      0.6107                15.5113                 1.0704

                      7                      8                      9
                      A                      A                      A
 Frequencies --    884.4869               898.2221              1086.4790
 Red. masses --      1.2156                 1.5288                 1.5591
 Frc consts  --      0.5603                 0.7267                 1.0843
 IR Inten    --      0.0534                 4.2199                 0.0330

                     10                     11                     12
                      A                      A                      A
 Frequencies --   1121.8906              1248.9104              1388.7201
 Red. masses --      1.9794                 2.4426                 1.2419
 Frc consts  --      1.4679                 2.2448                 1.4111
 IR Inten    --      3.4212                61.6432                19.5584

                     13                     14                     15
                      A                      A                      A
 Frequencies --   1398.5525              1465.8673              1468.6935
 Red. masses --      1.5674                 1.0415                 1.0499
 Frc consts  --      1.8063                 1.3186                 1.3344
 IR Inten    --     81.3432                 0.6845                 2.4392

                     16                     17                     18
                      A                      A                      A
 Frequencies --   1476.4804              1492.4411              1857.3257
 Red. masses --      1.0581                 1.0461                10.4839
 Frc consts  --      1.3590                 1.3729                21.3082
 IR Inten    --     27.5961                25.5297               222.2607

                     19                     20                     21
                      A                      A                      A
 Frequencies --   3064.0483              3069.3236              3129.6994
 Red. masses --      1.0369                 1.0369                 1.0992
 Frc consts  --      5.7354                 5.7552                 6.3434
 IR Inten    --      0.4426                 3.7082                 0.3317

                     22                     23                     24
                      A                      A                      A
 Frequencies --   3135.9972              3184.2612              3185.1603
 Red. masses --      1.0994                 1.1032                 1.1037
 Frc consts  --      6.3702                 6.5903                 6.5971
 IR Inten    --     10.4703                 7.2318                 3.0951

 - Thermochemistry -
 -------------------
 Temperature     0.001 Kelvin.  Pressure   1.00000 Atm.
 Atom     1 has atomic number  6 and mass  12.00000

 Molecular mass:    58.04186 amu.
 Principal axes and moments of inertia in atomic units:
                           1         2         3
     Eigenvalues --   176.75479 210.84859 365.33056
           X            1.00000  -0.00000  -0.00047
           Y            0.00000   1.00000   0.00000
           Z            0.00047  -0.00000   1.00000
 This molecule is an asymmetric top.
 Rotational symmetry number  1.
 Rotational temperatures (Kelvin)      0.49002     0.41079     0.23708
 Rotational constants (GHZ):          10.21042     8.55942     4.94002
 Zero-point vibrational energy     221020.8 (Joules/Mol)
                                   52.82524 (Kcal/Mol)
 Vibrational temperatures:     57.23   195.47   550.55   705.63   779.73
          (Kelvin)           1157.60  1272.58  1292.34  1563.20  1614.15
                             1796.90  1998.06  2012.21  2109.06  2113.12
                             2124.33  2147.29  2672.28  4408.48  4416.07
                             4502.94  4512.00  4581.44  4582.74

 Zero-point correction=                           0.084182 (Hartree/Particle)
 Thermal correction to Energy=                    0.084182
 Thermal correction to Enthalpy=                  0.084182
 Thermal correction to Gibbs Free Energy=         0.084182
 Sum of electronic and zero-point Energies=           -193.035380
 Sum of electronic and thermal Energies=              -193.035380
 Sum of electronic and thermal Enthalpies=            -193.035380
 Sum of electronic and thermal Free Energies=         -193.035380

                     E (Thermal)             CV                S
                      KCal/Mol        Cal/Mol-Kelvin    Cal/Mol-Kelvin
 Total                   52.825              5.962            -37.977
 Electronic               0.000              0.000              0.000
 Translational            0.000              2.981            -24.527
 Rotational               0.000              2.981            -13.450
 Vibrational             52.825              0.000              0.000

 Optimization completed.
    -- Stationary point found.
 Normal termination of Gaussian 16 at Sun Oct 13 20:07:21 2019.
