 Gaussian 16, Revision A.03,
 Gaussian 16:  ES64L-G16RevA.03 25-Dec-2016

 -------------------------------------------------------------------
 #P opt freq m062x/6-311++g(d,p) geom=connectivity temperature=0.001
 -------------------------------------------------------------------

 -------------------
 Title Card Required
 -------------------
 Symbolic Z-matrix:
 Charge =  1 Multiplicity = 1

 SCF Done:  E(RM062X) =  -193.432126895     A.U. after   12 cycles
 SCF Done:  E(RM062X) =  -193.436835183     A.U. after   11 cycles
 SCF Done:  E(RM062X) =  -193.437572740     A.U. after   10 cycles
 SCF Done:  E(RM062X) =  -193.437689822     A.U. after    9 cycles
 SCF Done:  E(RM062X) =  -193.437825315     A.U. after   10 cycles
 SCF Done:  E(RM062X) =  -193.437929286     A.U. after   10 cycles
 SCF Done:  E(RM062X) =  -193.438145910     A.U. after   10 cycles
 SCF Done:  E(RM062X) =  -193.438414670     A.U. after   11 cycles
 SCF Done:  E(RM062X) =  -193.438435144     A.U. after    8 cycles
 SCF Done:  E(RM062X) =  -193.438442860     A.U. after    9 cycles
 SCF Done:  E(RM062X) =  -193.438446968     A.U. after    8 cycles
 SCF Done:  E(RM062X) =  -193.438450302     A.U. after    8 cycles
 SCF Done:  E(RM062X) =  -193.438453233     A.U. after    8 cycles
 SCF Done:  E(RM062X) =  -193.438453654     A.U. after    8 cycles
 Optimization completed.
    -- Stationary point found.
 Normal termination of Gaussian 16 at Sun Oct 13 20:09:11 2019.

 ----------------------------------------------------------------------
 #P Geom=AllCheck Guess=TCheck SCRF=Check GenChk RM062X/6-311++G(d,p) F
 req
 ----------------------------------------------------------------------

 Structure from the checkpoint file:  "16_p.chk"
 -------------------
 Title Card Required
 -------------------
 Charge =  1 Multiplicity = 1

                         Standard orientation:
 ---------------------------------------------------------------------
 Center     Atomic      Atomic             Coordinates (Angstroms)
 Number     Number       Type             X           Y           Z
 ---------------------------------------------------------------------
      1          6           0       -1.345815   -0.533167   -0.008180
      2          6           0       -0.005045    0.064001   -0.001310
      3          6           0        1.220828   -0.751348    0.006379
      4          8           0        0.039443    1.332551   -0.004861
      5          1           0       -1.563755   -0.813727    1.033490
      6          1           0       -2.100035    0.175150   -0.345084
      7          1           0       -1.353786   -1.456281   -0.589769
      8          1           0        1.088385   -1.618743    0.656726
      9          1           0        1.343761   -1.144175   -1.013071
     10          1           0        2.112706   -0.189125    0.283122
     11          1           0        0.937384    1.709573    0.032144
 ---------------------------------------------------------------------

 SCF Done:  E(RM062X) =  -193.438453654     A.U. after    1 cycles

 The electronic state is 1-A.
 Alpha  occ. eigenvalues --  -19.94942 -10.92062 -10.76756 -10.75390  -1.50042
 Alpha  occ. eigenvalues --   -1.13427  -1.04516  -0.96258  -0.83026  -0.79120
 Alpha  occ. eigenvalues --   -0.78867  -0.69735  -0.68737  -0.67729  -0.67436
 Alpha  occ. eigenvalues --   -0.65965
 Alpha virt. eigenvalues --   -0.25308  -0.16757  -0.12941  -0.10934  -0.10770
 Alpha virt. eigenvalues --   -0.09231  -0.08898  -0.07923  -0.06867  -0.06447
 Alpha virt. eigenvalues --   -0.05641  -0.03557  -0.02929  -0.01886  -0.01268

 Mulliken charges:
               1
     1  C   -0.601885
     2  C    0.318429
     3  C   -0.508090
     4  O    0.011871
     5  H    0.265812
     6  H    0.235079
     7  H    0.235262
     8  H    0.251695
     9  H    0.270160
    10  H    0.178022
    11  H    0.343645
 Sum of Mulliken charges =   1.00000

 Dipole moment (field-independent basis, Debye):
    X=              1.5794    Y=             -0.4694    Z=              0.0878  Tot=              1.6500
 Quadrupole moment (field-independent basis, Debye-Ang):
   XX=            -14.7962   YY=            -17.1625   ZZ=            -22.1380
   XY=              3.1337   XZ=             -0.2628   YZ=              0.1298

  Exact polarizability:  40.028   1.214  39.790  -0.586   0.056  28.008
 Approx polarizability:  42.045   1.380  47.324  -0.950   0.025  34.472

                      1                      2                      3
                      A                      A                      A
 Frequencies --    107.4353               147.2996               397.2438
 Red. masses --      1.1059                 1.0206                 2.1912
 Frc consts  --      0.0075                 0.0130                 0.2037
 IR Inten    --      1.5471                 0.8875                 0.0178

                      4                      5                      6
                      A                      A                      A
 Frequencies --    478.9499               517.6370               724.5867
 Red. masses --      1.8417                 2.6766                 1.1317
 Frc consts  --      0.2489                 0.4226                 0.3501
 IR Inten    --      3.5872                14.2668                92.4188

                      7                      8                      9
                      A                      A                      A
 Frequencies --    843.3007               926.8919               953.6265
 Red. masses --      2.8806                 1.3202                 1.4771
 Frc consts  --      1.2070                 0.6683                 0.7915
 IR Inten    --     13.0157                25.9557                15.0779

                     10                     11                     12
                      A                      A                      A
 Frequencies --   1079.5894              1094.4101              1165.0232
 Red. masses --      1.5381                 1.9707                 1.4271
 Frc consts  --      1.0562                 1.3907                 1.1413
 IR Inten    --      0.3095                39.5383               104.8939

                     13                     14                     15
                      A                      A                      A
 Frequencies --   1363.1270              1380.0996              1416.8078
 Red. masses --      1.1702                 1.1654                 1.0963
 Frc consts  --      1.2811                 1.3078                 1.2966
 IR Inten    --     20.5110                67.1639                73.9259

                     16                     17                     18
                      A                      A                      A
 Frequencies --   1434.1007              1450.6533              1472.8550
 Red. masses --      1.1195                 1.2627                 1.1629
 Frc consts  --      1.3566                 1.5656                 1.4863
 IR Inten    --     49.9786                50.5363                43.1348

                     19                     20                     21
                      A                      A                      A
 Frequencies --   1502.5430              1641.3391              3029.7210
 Red. masses --      1.8180                 4.8955                 1.0489
 Frc consts  --      2.4183                 7.7704                 5.6726
 IR Inten    --    110.5169               174.3620                64.8679

                     22                     23                     24
                      A                      A                      A
 Frequencies --   3039.8153              3118.3753              3126.8810
 Red. masses --      1.0480                 1.0855                 1.0804
 Frc consts  --      5.7057                 6.2192                 6.2236
 IR Inten    --     28.6385                 9.5885                15.1670

                     25                     26                     27
                      A                      A                      A
 Frequencies --   3174.5517              3196.2743              3724.8377
 Red. masses --      1.1078                 1.1077                 1.0668
 Frc consts  --      6.5778                 6.6677                 8.7210
 IR Inten    --      4.5420                 8.3316               231.0116

 - Thermochemistry -
 -------------------
 Temperature     0.001 Kelvin.  Pressure   1.00000 Atm.
 Atom     1 has atomic number  6 and mass  12.00000

 Molecular mass:    59.04969 amu.
 Principal axes and moments of inertia in atomic units:
                           1         2         3
     Eigenvalues --   183.06544 214.11909 375.04956
           X            0.99626   0.08637  -0.00203
           Y           -0.08637   0.99626   0.00110
           Z            0.00212  -0.00092   1.00000
 This molecule is an asymmetric top.
 Rotational symmetry number  1.
 Rotational temperatures (Kelvin)      0.47313     0.40451     0.23094
 Rotational constants (GHZ):           9.85845     8.42868     4.81201
 Zero-point vibrational energy     254254.2 (Joules/Mol)
                                   60.76820 (Kcal/Mol)
 Vibrational temperatures:    154.58   211.93   571.55   689.10   744.76
          (Kelvin)           1042.52  1213.32  1333.59  1372.06  1553.29
                             1574.61  1676.21  1961.24  1985.66  2038.47
                             2063.35  2087.17  2119.11  2161.82  2361.52
                             4359.09  4373.62  4486.65  4498.88  4567.47
                             4598.73  5359.21

 Zero-point correction=                           0.096840 (Hartree/Particle)
 Thermal correction to Energy=                    0.096840
 Thermal correction to Enthalpy=                  0.096840
 Thermal correction to Gibbs Free Energy=         0.096840
 Sum of electronic and zero-point Energies=           -193.341613
 Sum of electronic and thermal Energies=              -193.341613
 Sum of electronic and thermal Enthalpies=            -193.341613
 Sum of electronic and thermal Free Energies=         -193.341613

                     E (Thermal)             CV                S
                      KCal/Mol        Cal/Mol-Kelvin    Cal/Mol-Kelvin
 Total                   60.768              5.962            -37.849
 Electronic               0.000              0.000              0.000
 Translational            0.000              2.981            -24.476
 Rotational               0.000              2.981            -13.373
 Vibrational             60.768              0.000              0.000

 Optimization completed.
    -- Stationary point found.
 Normal termination of Gaussian 16 at Sun Oct 13 20:09:31 2019.
