 Gaussian 16, Revision A.03,
 Gaussian 16:  ES64L-G16RevA.03 25-Dec-2016

 -------------------------------------------------------------------
 #P opt freq m062x/6-311++g(d,p) geom=connectivity temperature=0.001
 -------------------------------------------------------------------

 -------------------
 Title Card Required
 -------------------
 Symbolic Z-matrix:
 Charge =  0 Multiplicity = 1

 SCF Done:  E(RM062X) =  -897.096614655     A.U. after   14 cycles
 SCF Done:  E(RM062X) =  -897.134721170     A.U. after   13 cycles
 SCF Done:  E(RM062X) =  -897.161629405     A.U. after   12 cycles
 SCF Done:  E(RM062X) =  -897.178305835     A.U. after   12 cycles
 SCF Done:  E(RM062X) =  -897.182382601     A.U. after   13 cycles
 SCF Done:  E(RM062X) =  -897.184799493     A.U. after   13 cycles
 SCF Done:  E(RM062X) =  -897.188950376     A.U. after   13 cycles
 SCF Done:  E(RM062X) =  -897.189258432     A.U. after   14 cycles
 SCF Done:  E(RM062X) =  -897.192754982     A.U. after   13 cycles
 SCF Done:  E(RM062X) =  -897.193670504     A.U. after   12 cycles
 SCF Done:  E(RM062X) =  -897.194687786     A.U. after   11 cycles
 SCF Done:  E(RM062X) =  -897.194725812     A.U. after   11 cycles
 SCF Done:  E(RM062X) =  -897.194744983     A.U. after   10 cycles
 SCF Done:  E(RM062X) =  -897.194750257     A.U. after   10 cycles
 SCF Done:  E(RM062X) =  -897.194753743     A.U. after   10 cycles
 SCF Done:  E(RM062X) =  -897.194754608     A.U. after   10 cycles
 SCF Done:  E(RM062X) =  -897.194755118     A.U. after   10 cycles
 SCF Done:  E(RM062X) =  -897.194755206     A.U. after    8 cycles
 SCF Done:  E(RM062X) =  -897.194755211     A.U. after    7 cycles
 Optimization completed.
    -- Stationary point found.
 Normal termination of Gaussian 16 at Sun Oct 13 21:10:42 2019.

 ----------------------------------------------------------------------
 #P Geom=AllCheck Guess=TCheck SCRF=Check GenChk RM062X/6-311++G(d,p) F
 req
 ----------------------------------------------------------------------

 Structure from the checkpoint file:  "17.chk"
 -------------------
 Title Card Required
 -------------------
 Charge =  0 Multiplicity = 1

                         Standard orientation:
 ---------------------------------------------------------------------
 Center     Atomic      Atomic             Coordinates (Angstroms)
 Number     Number       Type             X           Y           Z
 ---------------------------------------------------------------------
      1          8           0       -9.780701   -1.414674   -0.618464
      2          6           0       -9.320129   -0.400760   -0.180534
      3          8           0       -9.888458    0.776292   -0.531364
      4          6           0       -9.454139    2.002174    0.041150
      5          6           0       -8.076763   -0.377276    0.683851
      6          6           0       -6.825414   -0.266851   -0.201640
      7          6           0       -5.537922   -0.281881    0.617550
      8          6           0       -4.283918   -0.211169   -0.250505
      9          6           0       -2.992563   -0.225334    0.563964
     10          6           0       -1.737395   -0.155350   -0.302481
     11          6           0       -0.445432   -0.167546    0.511027
     12          6           0        0.809912   -0.095714   -0.355049
     13          6           0        2.102185   -0.107424    0.458000
     14          6           0        3.357493   -0.035085   -0.408097
     15          6           0        4.649995   -0.047074    0.404596
     16          6           0        5.905115    0.027456   -0.461602
     17          6           0        7.197807    0.015927    0.350800
     18          6           0        8.452790    0.092402   -0.515495
     19          6           0        9.745520    0.081484    0.296505
     20          6           0       11.001387    0.159929   -0.568835
     21          6           0       12.285131    0.148356    0.257387
     22          1           0       -9.684629    2.042639    1.108041
     23          1           0       -8.386217    2.169044   -0.113957
     24          1           0      -10.014004    2.779869   -0.473040
     25          1           0       -8.093534    0.429158    1.419158
     26          1           0       -8.058046   -1.326546    1.220021
     27          1           0       -6.828039   -1.103067   -0.907355
     28          1           0       -6.866174    0.647627   -0.804017
     29          1           0       -5.541992    0.559813    1.320799
     30          1           0       -5.508368   -1.193464    1.225728
     31          1           0       -4.281080   -1.054587   -0.950855
     32          1           0       -4.316557    0.697921   -0.863046
     33          1           0       -2.996278    0.617967    1.265186
     34          1           0       -2.960179   -1.134584    1.176148
     35          1           0       -1.733019   -0.999300   -1.002682
     36          1           0       -1.770740    0.753049   -0.916087
     37          1           0       -0.450536    0.675804    1.212197
     38          1           0       -0.411424   -1.076516    1.123712
     39          1           0        0.815163   -0.939109   -1.056055
     40          1           0        0.775662    0.813096   -0.968035
     41          1           0        2.096829    0.735811    1.159303
     42          1           0        2.136663   -1.016414    1.070693
     43          1           0        3.362738   -0.878094   -1.109614
     44          1           0        3.323055    0.874041   -1.020627
     45          1           0        4.644163    0.795189    1.107065
     46          1           0        4.685247   -0.956852    1.016087
     47          1           0        5.911098   -0.814757   -1.164090
     48          1           0        5.869632    0.937221   -1.073125
     49          1           0        7.191335    0.857535    1.054030
     50          1           0        7.234063   -0.894340    0.961500
     51          1           0        8.459531   -0.749242   -1.218691
     52          1           0        8.416338    1.002652   -1.126272
     53          1           0        9.739170    0.922424    1.000781
     54          1           0        9.783645   -0.829232    0.906709
     55          1           0       11.006705   -0.680460   -1.271374
     56          1           0       10.961946    1.069915   -1.177304
     57          1           0       12.356133   -0.765891    0.852455
     58          1           0       13.172474    0.205582   -0.376085
     59          1           0       12.310534    0.995560    0.947758
 ---------------------------------------------------------------------

 SCF Done:  E(RM062X) =  -897.194755211     A.U. after    1 cycles

 The electronic state is 1-A.
 Alpha  occ. eigenvalues --  -19.66690 -19.60635 -10.67230 -10.60554 -10.55786
 Alpha  occ. eigenvalues --  -10.55215 -10.54226 -10.53672 -10.53376 -10.53137
 Alpha  occ. eigenvalues --  -10.52994 -10.52878 -10.52803 -10.52765 -10.52743
 Alpha  occ. eigenvalues --  -10.52701 -10.52671 -10.52644 -10.52618 -10.52582
 Alpha  occ. eigenvalues --  -10.52064  -1.23218  -1.14560  -0.92913  -0.91897
 Alpha  occ. eigenvalues --   -0.90964  -0.89566  -0.87757  -0.85577  -0.83304
 Alpha  occ. eigenvalues --   -0.82720  -0.80109  -0.77023  -0.73805  -0.70692
 Alpha  occ. eigenvalues --   -0.68176  -0.67053  -0.66301  -0.66058  -0.65686
 Alpha  occ. eigenvalues --   -0.65387  -0.65240  -0.59115  -0.57820  -0.56896
 Alpha  occ. eigenvalues --   -0.56602  -0.55984  -0.55031  -0.53745  -0.52168
 Alpha  occ. eigenvalues --   -0.50933  -0.50524  -0.50299  -0.49880  -0.49606
 Alpha  occ. eigenvalues --   -0.48547  -0.48319  -0.48007  -0.46794  -0.46273
 Alpha  occ. eigenvalues --   -0.45886  -0.44469  -0.44254  -0.43772  -0.42857
 Alpha  occ. eigenvalues --   -0.42259  -0.41766  -0.40939  -0.40689  -0.40431
 Alpha  occ. eigenvalues --   -0.39805  -0.39712  -0.39047  -0.38962  -0.38494
 Alpha  occ. eigenvalues --   -0.38444  -0.38149  -0.38112  -0.37929  -0.37854
 Alpha  occ. eigenvalues --   -0.37330  -0.36801  -0.34692  -0.33915
 Alpha virt. eigenvalues --   -0.01132  -0.00278   0.00169   0.00189   0.00515
 Alpha virt. eigenvalues --    0.00797   0.00860   0.01120   0.01612   0.01742
 Alpha virt. eigenvalues --    0.01964   0.02559   0.02830   0.02989   0.03325

 Mulliken charges:
               1
     1  O   -0.253484
     2  C   -0.252886
     3  O   -0.075939
     4  C   -0.367998
     5  C   -0.070351
     6  C   -0.441139
     7  C   -0.178344
     8  C   -0.224524
     9  C   -0.219322
    10  C   -0.264440
    11  C   -0.306844
    12  C   -0.344092
    13  C   -0.327085
    14  C   -0.296821
    15  C   -0.252439
    16  C   -0.192949
    17  C   -0.174489
    18  C   -0.260231
    19  C   -0.395696
    20  C   -0.221792
    21  C   -0.639397
    22  H    0.168717
    23  H    0.150205
    24  H    0.199217
    25  H    0.145483
    26  H    0.244771
    27  H    0.197343
    28  H    0.127960
    29  H    0.145168
    30  H    0.153911
    31  H    0.152451
    32  H    0.145655
    33  H    0.144965
    34  H    0.146292
    35  H    0.146194
    36  H    0.144225
    37  H    0.143209
    38  H    0.144514
    39  H    0.144657
    40  H    0.143530
    41  H    0.143204
    42  H    0.144034
    43  H    0.144055
    44  H    0.143429
    45  H    0.143395
    46  H    0.143958
    47  H    0.143517
    48  H    0.143038
    49  H    0.142914
    50  H    0.143315
    51  H    0.142974
    52  H    0.142620
    53  H    0.141335
    54  H    0.141675
    55  H    0.146875
    56  H    0.146671
    57  H    0.147495
    58  H    0.179950
    59  H    0.147339
 Sum of Mulliken charges =  -0.00000

 Dipole moment (field-independent basis, Debye):
    X=              3.1110    Y=              3.1153    Z=              2.0756  Tot=              4.8674
 Quadrupole moment (field-independent basis, Debye-Ang):
   XX=           -193.2398   YY=           -135.3617   ZZ=           -140.8408
   XY=            -31.7444   XZ=            -22.1885   YZ=             -1.2713

  Exact polarizability: 309.313   0.507 202.750   3.081   1.313 200.458
 Approx polarizability: 258.847   2.087 270.805   3.265   3.000 261.424

                      1                      2                      3
                      A                      A                      A
 Frequencies --      8.8106                13.9707                22.6541
 Red. masses --      4.5878                 4.8715                 3.8849
 Frc consts  --      0.0002                 0.0006                 0.0012
 IR Inten    --      0.3315                 0.5509                 1.2669

                      4                      5                      6
                      A                      A                      A
 Frequencies --     23.9210                39.2094                40.0759
 Red. masses --      1.9595                 4.1198                 4.2639
 Frc consts  --      0.0007                 0.0037                 0.0040
 IR Inten    --      1.3309                 0.7316                 1.7388

                      7                      8                      9
                      A                      A                      A
 Frequencies --     47.4988                61.9934                73.9431
 Red. masses --      1.5834                 3.6225                 1.5892
 Frc consts  --      0.0021                 0.0082                 0.0051
 IR Inten    --      0.2330                 0.5344                 0.1590

                     10                     11                     12
                      A                      A                      A
 Frequencies --     76.1027                89.7474               101.0346
 Red. masses --      4.2669                 3.2381                 1.7451
 Frc consts  --      0.0146                 0.0154                 0.0105
 IR Inten    --      1.8524                 0.1278                 0.0214

                     13                     14                     15
                      A                      A                      A
 Frequencies --    107.0555               112.0896               126.1688
 Red. masses --      4.6375                 2.6464                 3.2027
 Frc consts  --      0.0313                 0.0196                 0.0300
 IR Inten    --      1.0639                 0.6526                 1.9996

                     16                     17                     18
                      A                      A                      A
 Frequencies --    129.2623               135.6593               151.4469
 Red. masses --      1.8269                 2.7718                 2.0138
 Frc consts  --      0.0180                 0.0301                 0.0272
 IR Inten    --      0.2748                 0.1033                 1.0230

                     19                     20                     21
                      A                      A                      A
 Frequencies --    154.0840               164.5020               171.4775
 Red. masses --      2.2745                 2.1691                 2.1243
 Frc consts  --      0.0318                 0.0346                 0.0368
 IR Inten    --      0.2068                 1.3450                 0.0783

                     22                     23                     24
                      A                      A                      A
 Frequencies --    173.0121               179.6239               217.8165
 Red. masses --      2.3167                 2.8877                 3.0876
 Frc consts  --      0.0409                 0.0549                 0.0863
 IR Inten    --      0.3888                 0.0197                 0.8017

                     25                     26                     27
                      A                      A                      A
 Frequencies --    223.9269               249.4219               254.2346
 Red. masses --      1.2393                 1.1191                 3.3050
 Frc consts  --      0.0366                 0.0410                 0.1259
 IR Inten    --      0.2004                 0.0005                 0.6282

                     28                     29                     30
                      A                      A                      A
 Frequencies --    301.9836               331.1070               358.1857
 Red. masses --      3.7312                 3.2383                 3.0108
 Frc consts  --      0.2005                 0.2092                 0.2276
 IR Inten    --      0.4938                 0.1492                 0.3375

                     31                     32                     33
                      A                      A                      A
 Frequencies --    388.3159               416.4832               465.1151
 Red. masses --      3.4931                 3.2623                 3.2728
 Frc consts  --      0.3103                 0.3334                 0.4171
 IR Inten    --      0.6332                 0.5938                 0.2841

                     34                     35                     36
                      A                      A                      A
 Frequencies --    480.2870               492.5359               520.9191
 Red. masses --      3.0939                 2.8435                 3.0421
 Frc consts  --      0.4205                 0.4064                 0.4864
 IR Inten    --      0.2609                 2.0552                 0.2305

                     37                     38                     39
                      A                      A                      A
 Frequencies --    525.8646               606.7723               729.6312
 Red. masses --      2.9799                 5.6085                 1.0625
 Frc consts  --      0.4855                 1.2166                 0.3333
 IR Inten    --      0.1670                12.4596                 0.1759

                     40                     41                     42
                      A                      A                      A
 Frequencies --    729.8739               730.7970               732.0480
 Red. masses --      1.0621                 1.0584                 1.0745
 Frc consts  --      0.3334                 0.3330                 0.3393
 IR Inten    --      0.5837                10.6383                 0.6947

                     43                     44                     45
                      A                      A                      A
 Frequencies --    736.4733               738.3853               746.5210
 Red. masses --      1.1937                 4.0121                 1.1194
 Frc consts  --      0.3815                 1.2888                 0.3676
 IR Inten    --      1.3658                 6.5381                 0.0645

                     46                     47                     48
                      A                      A                      A
 Frequencies --    763.1082               786.8375               816.9129
 Red. masses --      1.1491                 1.1943                 1.2680
 Frc consts  --      0.3942                 0.4356                 0.4986
 IR Inten    --      0.1466                 0.6286                 0.9174

                     49                     50                     51
                      A                      A                      A
 Frequencies --    844.5859               861.9065               895.0937
 Red. masses --      1.9376                 1.7167                 1.3120
 Frc consts  --      0.8143                 0.7514                 0.6193
 IR Inten    --     11.3571                 5.0348                 0.4212

                     52                     53                     54
                      A                      A                      A
 Frequencies --    910.6054               933.5140               971.9032
 Red. masses --      1.8148                 1.2777                 1.2535
 Frc consts  --      0.8866                 0.6560                 0.6976
 IR Inten    --      2.2705                 0.3737                 0.2808

                     55                     56                     57
                      A                      A                      A
 Frequencies --   1003.4250              1006.9014              1009.0941
 Red. masses --      5.2097                 2.2681                 1.7245
 Frc consts  --      3.0906                 1.3548                 1.0346
 IR Inten    --      0.1185                 1.4638                 0.4931

                     58                     59                     60
                      A                      A                      A
 Frequencies --   1022.6995              1029.4778              1040.5997
 Red. masses --      4.3003                 3.8793                 1.1700
 Frc consts  --      2.6500                 2.4223                 0.7464
 IR Inten    --      1.2204                 0.3318                 1.7794

                     61                     62                     63
                      A                      A                      A
 Frequencies --   1051.2964              1053.8097              1065.4865
 Red. masses --      3.2458                 3.5312                 1.0845
 Frc consts  --      2.1136                 2.3104                 0.7254
 IR Inten    --      0.1075                 1.5012                 1.8873

                     64                     65                     66
                      A                      A                      A
 Frequencies --   1069.7949              1081.9601              1088.8649
 Red. masses --      2.7685                 2.5297                 2.2673
 Frc consts  --      1.8668                 1.7448                 1.5838
 IR Inten    --      0.0917                 1.6455                 4.8142

                     67                     68                     69
                      A                      A                      A
 Frequencies --   1090.0061              1091.1382              1093.3715
 Red. masses --      2.0238                 2.0489                 1.9803
 Frc consts  --      1.4167                 1.4373                 1.3948
 IR Inten    --      8.0554                 0.7987                 7.5389

                     70                     71                     72
                      A                      A                      A
 Frequencies --   1094.9644              1095.7313              1100.1108
 Red. masses --      2.0223                 2.0374                 1.7972
 Frc consts  --      1.4285                 1.4413                 1.2815
 IR Inten    --      0.5809                 8.9001                28.1898

                     73                     74                     75
                      A                      A                      A
 Frequencies --   1130.7647              1153.1579              1159.0626
 Red. masses --      2.9700                 4.4512                 3.4387
 Frc consts  --      2.2374                 3.4874                 2.7218
 IR Inten    --      0.6658                68.4191                 3.8504

                     76                     77                     78
                      A                      A                      A
 Frequencies --   1179.7885              1198.5735              1205.3426
 Red. masses --      1.2775                 1.6979                 1.8343
 Frc consts  --      1.0477                 1.4371                 1.5701
 IR Inten    --      0.9285                19.2756                 0.9690

                     79                     80                     81
                      A                      A                      A
 Frequencies --   1210.1591              1217.9521              1230.2781
 Red. masses --      1.2627                 1.6479                 1.3523
 Frc consts  --      1.0896                 1.4402                 1.2059
 IR Inten    --      4.2588                 0.9402                 4.6821

                     82                     83                     84
                      A                      A                      A
 Frequencies --   1235.3722              1249.3201              1255.4980
 Red. masses --      1.5099                 1.4043                 1.4038
 Frc consts  --      1.3576                 1.2914                 1.3037
 IR Inten    --      7.8784                17.1998                10.3582

                     85                     86                     87
                      A                      A                      A
 Frequencies --   1268.1994              1276.3295              1287.3297
 Red. masses --      1.4088                 1.3482                 1.3923
 Frc consts  --      1.3350                 1.2940                 1.3595
 IR Inten    --     26.5165                10.5187                33.5858

                     88                     89                     90
                      A                      A                      A
 Frequencies --   1296.8027              1305.8382              1316.0084
 Red. masses --      1.3083                 1.3683                 1.2673
 Frc consts  --      1.2963                 1.3747                 1.2931
 IR Inten    --      5.9861                34.8377                 1.0334

                     91                     92                     93
                      A                      A                      A
 Frequencies --   1321.0343              1322.9280              1326.1339
 Red. masses --      1.0542                 1.2478                 1.0310
 Frc consts  --      1.0839                 1.2867                 1.0683
 IR Inten    --      4.9692                28.3694                 2.0577

                     94                     95                     96
                      A                      A                      A
 Frequencies --   1331.0422              1333.1209              1336.7170
 Red. masses --      1.1904                 1.0957                 1.1358
 Frc consts  --      1.2426                 1.1473                 1.1957
 IR Inten    --     18.1207                 1.0017                 1.6660

                     97                     98                     99
                      A                      A                      A
 Frequencies --   1340.7613              1341.7720              1344.8311
 Red. masses --      1.1623                 1.1551                 1.2124
 Frc consts  --      1.2310                 1.2253                 1.2919
 IR Inten    --      8.5903                 9.2904                31.4355

                    100                    101                    102
                      A                      A                      A
 Frequencies --   1346.5402              1347.8180              1359.9475
 Red. masses --      1.1136                 1.2019                 1.4901
 Frc consts  --      1.1896                 1.2865                 1.6237
 IR Inten    --      0.3966                30.8803                41.8635

                    103                    104                    105
                      A                      A                      A
 Frequencies --   1376.5780              1391.1483              1402.8186
 Red. masses --      1.4818                 1.5157                 1.5730
 Frc consts  --      1.6543                 1.7282                 1.8238
 IR Inten    --     12.6359                 6.1945                 1.0609

                    106                    107                    108
                      A                      A                      A
 Frequencies --   1411.0680              1413.4114              1414.8561
 Red. masses --      1.6635                 1.6441                 1.8085
 Frc consts  --      1.9515                 1.9351                 2.1330
 IR Inten    --      0.6688                 1.8900                 0.7317

                    109                    110                    111
                      A                      A                      A
 Frequencies --   1416.2232              1416.9274              1417.7446
 Red. masses --      1.5901                 1.7712                 1.6047
 Frc consts  --      1.8790                 2.0951                 1.9003
 IR Inten    --      0.8254                 0.2058                 1.0410

                    112                    113                    114
                      A                      A                      A
 Frequencies --   1484.7995              1484.8341              1486.4191
 Red. masses --      1.0790                 1.0792                 1.0812
 Frc consts  --      1.4015                 1.4019                 1.4074
 IR Inten    --      0.0042                 0.3117                 0.5551

                    115                    116                    117
                      A                      A                      A
 Frequencies --   1486.5339              1488.4580              1488.8357
 Red. masses --      1.0815                 1.0940                 1.0807
 Frc consts  --      1.4081                 1.4280                 1.4114
 IR Inten    --      1.5291                 4.7768                 1.7892

                    118                    119                    120
                      A                      A                      A
 Frequencies --   1490.4203              1491.1652              1492.4114
 Red. masses --      1.1048                 1.0742                 1.1020
 Frc consts  --      1.4459                 1.4073                 1.4462
 IR Inten    --      8.6051                 0.0310                 6.9002

                    121                    122                    123
                      A                      A                      A
 Frequencies --   1495.5734              1497.4893              1499.2657
 Red. masses --      1.0959                 1.1005                 1.1000
 Frc consts  --      1.4442                 1.4540                 1.4568
 IR Inten    --      7.8462                 6.7122                 3.8592

                    124                    125                    126
                      A                      A                      A
 Frequencies --   1502.9379              1505.5000              1506.4221
 Red. masses --      1.0973                 1.0407                 1.0922
 Frc consts  --      1.4603                 1.3897                 1.4603
 IR Inten    --      6.4518                10.7968                 2.7712

                    127                    128                    129
                      A                      A                      A
 Frequencies --   1509.6473              1512.6503              1515.0018
 Red. masses --      1.0920                 1.0931                 1.0940
 Frc consts  --      1.4663                 1.4736                 1.4794
 IR Inten    --      4.3444                 1.5455                 1.8100

                    130                    131                    132
                      A                      A                      A
 Frequencies --   1516.2559              1516.3832              1521.6463
 Red. masses --      1.0723                 1.0721                 1.0734
 Frc consts  --      1.4524                 1.4524                 1.4643
 IR Inten    --     20.5543                11.1329                17.3826

                    133                    134                    135
                      A                      A                      A
 Frequencies --   1874.3459              3028.9484              3029.2127
 Red. masses --     12.0435                 1.0583                 1.0583
 Frc consts  --     24.9288                 5.7208                 5.7217
 IR Inten    --    414.3616                 0.1971                 0.0318

                    136                    137                    138
                      A                      A                      A
 Frequencies --   3029.7971              3030.2738              3030.9389
 Red. masses --      1.0587                 1.0588                 1.0592
 Frc consts  --      5.7259                 5.7282                 5.7332
 IR Inten    --      0.2695                 0.0815                 0.1478

                    139                    140                    141
                      A                      A                      A
 Frequencies --   3031.4148              3032.6761              3033.8783
 Red. masses --      1.0592                 1.0593                 1.0595
 Frc consts  --      5.7348                 5.7400                 5.7460
 IR Inten    --      0.1312                 1.8331                 0.2396

                    142                    143                    144
                      A                      A                      A
 Frequencies --   3036.2966              3039.1656              3042.1257
 Red. masses --      1.0598                 1.0600                 1.0600
 Frc consts  --      5.7568                 5.7685                 5.7799
 IR Inten    --      2.6474                 0.3443                 8.1915

                    145                    146                    147
                      A                      A                      A
 Frequencies --   3044.8776              3047.0523              3049.6022
 Red. masses --      1.0599                 1.0597                 1.0594
 Frc consts  --      5.7898                 5.7970                 5.8052
 IR Inten    --      3.1506               190.3346                99.8116

                    148                    149                    150
                      A                      A                      A
 Frequencies --   3053.3291              3053.9886              3054.5906
 Red. masses --      1.0660                 1.0996                 1.0997
 Frc consts  --      5.8556                 6.0428                 6.0456
 IR Inten    --     38.0769                 0.1127                 0.6028

                    151                    152                    153
                      A                      A                      A
 Frequencies --   3055.7835              3056.1674              3057.7070
 Red. masses --      1.0997                 1.0363                 1.0998
 Frc consts  --      6.0501                 5.7030                 6.0583
 IR Inten    --      1.4173                43.3737                 2.2277

                    154                    155                    156
                      A                      A                      A
 Frequencies --   3060.4020              3063.4418              3063.9229
 Red. masses --      1.1001                 1.0423                 1.0928
 Frc consts  --      6.0708                 5.7633                 6.0441
 IR Inten    --      2.4881                21.4772                 3.7439

                    157                    158                    159
                      A                      A                      A
 Frequencies --   3067.8659              3072.7885              3078.2997
 Red. masses --      1.1025                 1.1043                 1.1052
 Frc consts  --      6.1139                 6.1432                 6.1705
 IR Inten    --      1.5370                 0.3509                 0.5174

                    160                    161                    162
                      A                      A                      A
 Frequencies --   3083.6810              3088.5656              3092.7857
 Red. masses --      1.1056                 1.1057                 1.1054
 Frc consts  --      6.1944                 6.2143                 6.2295
 IR Inten    --      0.7067                 0.0180                 8.8022

                    163                    164                    165
                      A                      A                      A
 Frequencies --   3096.2897              3098.7850              3099.7784
 Red. masses --      1.1042                 1.0960                 1.0754
 Frc consts  --      6.2370                 6.2008                 6.0880
 IR Inten    --      2.1242               151.4836                91.3355

                    166                    167                    168
                      A                      A                      A
 Frequencies --   3104.3428              3125.5427              3133.3252
 Red. masses --      1.0981                 1.1029                 1.1018
 Frc consts  --      6.2351                 6.3480                 6.3732
 IR Inten    --     78.1774                48.4633                31.8492

                    169                    170                    171
                      A                      A                      A
 Frequencies --   3135.4962              3152.1868              3177.1110
 Red. masses --      1.1066                 1.1056                 1.1021
 Frc consts  --      6.4101                 6.4724                 6.5547
 IR Inten    --     22.6399                14.2008                12.4422

 - Thermochemistry -
 -------------------
 Temperature     0.001 Kelvin.  Pressure   1.00000 Atm.
 Atom     1 has atomic number  8 and mass  15.99491

 Molecular mass:   298.28718 amu.
 Principal axes and moments of inertia in atomic units:
                           1         2         3
     Eigenvalues --   841.96145********************
           X            1.00000  -0.00230  -0.00175
           Y            0.00227   0.99981  -0.01926
           Z            0.00179   0.01926   0.99981
 This molecule is an asymmetric top.
 Rotational symmetry number  1.
 Warning -- assumption of classical behavior for rotation
           may cause significant error
 Rotational temperatures (Kelvin)      0.10287     0.00151     0.00151
 Rotational constants (GHZ):           2.14350     0.03148     0.03139
 Zero-point vibrational energy    1441152.5 (Joules/Mol)
                                  344.44370 (Kcal/Mol)
 Vibrational temperatures:     12.68    20.10    32.59    34.42    56.41
          (Kelvin)             57.66    68.34    89.19   106.39   109.49
                              129.13   145.37   154.03   161.27   181.53
                              185.98   195.18   217.90   221.69   236.68
                              246.72   248.93   258.44   313.39   322.18
                              358.86   365.79   434.49   476.39   515.35
                              558.70   599.23   669.20   691.03   708.65
                              749.49   756.60   873.01  1049.78  1050.13
                             1051.45  1053.25  1059.62  1062.37  1074.08
                             1097.94  1132.08  1175.36  1215.17  1240.09
                             1287.84  1310.16  1343.12  1398.35  1443.70
                             1448.71  1451.86  1471.44  1481.19  1497.19
                             1512.58  1516.20  1533.00  1539.20  1556.70
                             1566.63  1568.28  1569.90  1573.12  1575.41
                             1576.51  1582.81  1626.92  1659.14  1667.63
                             1697.45  1724.48  1734.22  1741.15  1752.36
                             1770.10  1777.43  1797.49  1806.38  1824.66
                             1836.35  1852.18  1865.81  1878.81  1893.44
                             1900.67  1903.40  1908.01  1915.07  1918.06
                             1923.24  1929.06  1930.51  1934.91  1937.37
                             1939.21  1956.66  1980.59  2001.55  2018.34
                             2030.21  2033.58  2035.66  2037.63  2038.64
                             2039.82  2136.30  2136.35  2138.63  2138.79
                             2141.56  2142.10  2144.38  2145.45  2147.25
                             2151.80  2154.55  2157.11  2162.39  2166.08
                             2167.41  2172.05  2176.37  2179.75  2181.55
                             2181.74  2189.31  2696.77  4357.98  4358.36
                             4359.20  4359.89  4360.85  4361.53  4363.34
                             4365.07  4368.55  4372.68  4376.94  4380.90
                             4384.03  4387.70  4393.06  4394.01  4394.87
                             4396.59  4397.14  4399.36  4403.24  4407.61
                             4408.30  4413.97  4421.06  4428.99  4436.73
                             4443.76  4449.83  4454.87  4458.46  4459.89
                             4466.46  4496.96  4508.16  4511.28  4535.29
                             4571.15

 Zero-point correction=                           0.548906 (Hartree/Particle)
 Thermal correction to Energy=                    0.548906
 Thermal correction to Enthalpy=                  0.548906
 Thermal correction to Gibbs Free Energy=         0.548906
 Sum of electronic and zero-point Energies=           -896.645849
 Sum of electronic and thermal Energies=              -896.645849
 Sum of electronic and thermal Enthalpies=            -896.645849
 Sum of electronic and thermal Free Energies=         -896.645849

                     E (Thermal)             CV                S
                      KCal/Mol        Cal/Mol-Kelvin    Cal/Mol-Kelvin
 Total                  344.444              5.962            -20.951
 Electronic               0.000              0.000              0.000
 Translational            0.000              2.981            -19.648
 Rotational               0.000              2.981             -1.303
 Vibrational            344.444              0.000              0.000

 Optimization completed.
    -- Stationary point found.
 Normal termination of Gaussian 16 at Sun Oct 13 21:52:43 2019.
