 Gaussian 16, Revision A.03,
 Gaussian 16:  ES64L-G16RevA.03 25-Dec-2016

 -------------------------------------------------------------------
 #P opt freq m062x/6-311++g(d,p) geom=connectivity temperature=0.001
 -------------------------------------------------------------------

 -------------------
 Title Card Required
 -------------------
 Symbolic Z-matrix:
 Charge =  0 Multiplicity = 1

 SCF Done:  E(RM062X) =  -213.723190624     A.U. after   12 cycles
 SCF Done:  E(RM062X) =  -213.736058067     A.U. after   11 cycles
 SCF Done:  E(RM062X) =  -213.740411383     A.U. after   11 cycles
 SCF Done:  E(RM062X) =  -213.743553598     A.U. after   11 cycles
 SCF Done:  E(RM062X) =  -213.722155905     A.U. after   11 cycles
 SCF Done:  E(RM062X) =  -213.747066301     A.U. after   11 cycles
 SCF Done:  E(RM062X) =  -213.747635049     A.U. after   10 cycles
 SCF Done:  E(RM062X) =  -213.747743644     A.U. after   10 cycles
 SCF Done:  E(RM062X) =  -213.747818239     A.U. after    9 cycles
 SCF Done:  E(RM062X) =  -213.747844732     A.U. after    9 cycles
 SCF Done:  E(RM062X) =  -213.747853371     A.U. after    9 cycles
 SCF Done:  E(RM062X) =  -213.747854751     A.U. after    8 cycles
 SCF Done:  E(RM062X) =  -213.747855151     A.U. after    8 cycles
 SCF Done:  E(RM062X) =  -213.747855194     A.U. after    7 cycles
 Optimization completed.
    -- Stationary point found.
 Normal termination of Gaussian 16 at Sun Oct 13 20:28:06 2019.

 ----------------------------------------------------------------------
 #P Geom=AllCheck Guess=TCheck SCRF=Check GenChk RM062X/6-311++G(d,p) F
 req
 ----------------------------------------------------------------------

 Structure from the checkpoint file:  "18.chk"
 -------------------
 Title Card Required
 -------------------
 Charge =  0 Multiplicity = 1

                         Standard orientation:
 ---------------------------------------------------------------------
 Center     Atomic      Atomic             Coordinates (Angstroms)
 Number     Number       Type             X           Y           Z
 ---------------------------------------------------------------------
      1          6           0       -2.521211   -0.309459   -0.014346
      2          6           0       -1.245673    0.527919    0.039031
      3          6           0        0.016383   -0.327482   -0.037747
      4          6           0        1.295317    0.497076    0.016245
      5          7           0        2.467462   -0.372473   -0.092760
      6          1           0       -2.556346   -1.017094    0.818053
      7          1           0       -3.414742    0.315453    0.038765
      8          1           0       -2.568562   -0.885988   -0.941620
      9          1           0       -1.243244    1.247372   -0.786935
     10          1           0       -1.230814    1.117264    0.962218
     11          1           0        0.017347   -1.046895    0.791239
     12          1           0        0.018968   -0.915428   -0.961048
     13          1           0        1.311293    1.188668   -0.831514
     14          1           0        1.288354    1.109934    0.930241
     15          1           0        2.512412   -1.003212    0.700748
     16          1           0        3.324199    0.168915   -0.089917
 ---------------------------------------------------------------------

 SCF Done:  E(RM062X) =  -213.747855194     A.U. after    1 cycles

 The electronic state is 1-A.
 Alpha  occ. eigenvalues --  -14.72237 -10.55494 -10.52959 -10.52544 -10.52137
 Alpha  occ. eigenvalues --   -0.98639  -0.88624  -0.79998  -0.70240  -0.66173
 Alpha  occ. eigenvalues --   -0.56346  -0.54101  -0.51337  -0.48690  -0.47498
 Alpha  occ. eigenvalues --   -0.43993  -0.41637  -0.39284  -0.38652  -0.38354
 Alpha  occ. eigenvalues --   -0.30419
 Alpha virt. eigenvalues --   -0.00192   0.00852   0.01419   0.01997   0.03186
 Alpha virt. eigenvalues --    0.03841   0.04516   0.05171   0.06408   0.06988
 Alpha virt. eigenvalues --    0.07308   0.07998   0.10052   0.11335   0.11871

 Mulliken charges:
               1
     1  C   -0.592744
     2  C   -0.172645
     3  C   -0.256724
     4  C   -0.418248
     5  N   -0.364823
     6  H    0.145197
     7  H    0.162762
     8  H    0.148109
     9  H    0.144858
    10  H    0.139182
    11  H    0.129377
    12  H    0.179315
    13  H    0.165046
    14  H    0.133446
    15  H    0.215497
    16  H    0.242396
 Sum of Mulliken charges =  -0.00000

 Dipole moment (field-independent basis, Debye):
    X=              0.0612    Y=              0.7405    Z=              1.1183  Tot=              1.3426
 Quadrupole moment (field-independent basis, Debye-Ang):
   XX=            -33.1182   YY=            -35.0098   ZZ=            -34.6546
   XY=              1.8005   XZ=              3.1058   YZ=             -1.9661

  Exact polarizability:  68.278  -0.115  55.922  -0.047   0.370  52.204
 Approx polarizability:  65.302  -0.438  66.472  -0.220  -0.248  64.662

                      1                      2                      3
                      A                      A                      A
 Frequencies --    103.0940               119.8182               183.4689
 Red. masses --      1.6818                 2.3831                 2.5370
 Frc consts  --      0.0105                 0.0202                 0.0503
 IR Inten    --      3.9242                 0.9128                 0.7979

                      4                      5                      6
                      A                      A                      A
 Frequencies --    249.3501               259.5621               401.6956
 Red. masses --      1.1052                 1.1565                 3.0577
 Frc consts  --      0.0405                 0.0459                 0.2907
 IR Inten    --      5.4691                37.6813                 0.0265

                      7                      8                      9
                      A                      A                      A
 Frequencies --    440.3994               742.5378               802.0954
 Red. masses --      3.0521                 1.0717                 1.1235
 Frc consts  --      0.3488                 0.3482                 0.4259
 IR Inten    --      9.6096                 3.0637                26.7756

                     10                     11                     12
                      A                      A                      A
 Frequencies --    848.2761               913.4973               957.3219
 Red. masses --      1.2250                 1.6341                 1.2087
 Frc consts  --      0.5194                 0.8034                 0.6526
 IR Inten    --    109.6712                 1.9127                 4.8206

                     13                     14                     15
                      A                      A                      A
 Frequencies --    998.7633              1072.3159              1094.1178
 Red. masses --      2.4724                 1.8537                 2.0285
 Frc consts  --      1.4531                 1.2558                 1.4307
 IR Inten    --      5.2834                 0.3172                 1.9641

                     16                     17                     18
                      A                      A                      A
 Frequencies --   1118.8566              1166.0445              1226.8115
 Red. masses --      2.3168                 1.9009                 1.6158
 Frc consts  --      1.7088                 1.5228                 1.4329
 IR Inten    --     14.3557                 7.1231                 0.4125

                     19                     20                     21
                      A                      A                      A
 Frequencies --   1268.5434              1314.1360              1329.0797
 Red. masses --      1.3201                 1.2931                 1.0603
 Frc consts  --      1.2516                 1.3157                 1.1035
 IR Inten    --      1.6303                 0.2673                 0.5137

                     22                     23                     24
                      A                      A                      A
 Frequencies --   1338.9420              1393.6217              1415.5465
 Red. masses --      1.1872                 1.4775                 1.3063
 Frc consts  --      1.2540                 1.6907                 1.5423
 IR Inten    --      2.2506                 0.0725                 4.7121

                     25                     26                     27
                      A                      A                      A
 Frequencies --   1436.9577              1491.3975              1497.9490
 Red. masses --      1.5824                 1.0738                 1.0679
 Frc consts  --      1.9251                 1.4072                 1.4118
 IR Inten    --     14.2975                 0.2586                 1.0988

                     28                     29                     30
                      A                      A                      A
 Frequencies --   1505.4946              1512.0928              1524.8412
 Red. masses --      1.0391                 1.0768                 1.0913
 Frc consts  --      1.3877                 1.4506                 1.4950
 IR Inten    --      9.2877                 6.6131                 3.3750

                     31                     32                     33
                      A                      A                      A
 Frequencies --   1659.8748              2991.5446              3034.1699
 Red. masses --      1.0939                 1.0715                 1.0650
 Frc consts  --      1.7757                 5.6500                 5.7766
 IR Inten    --     39.9334                59.5877                 9.6016

                     34                     35                     36
                      A                      A                      A
 Frequencies --   3048.4237              3057.6341              3074.2147
 Red. masses --      1.0611                 1.0361                 1.0931
 Frc consts  --      5.8099                 5.7071                 6.0866
 IR Inten    --     32.3186                31.0714                14.9849

                     37                     38                     39
                      A                      A                      A
 Frequencies --   3079.2221              3100.7661              3127.6350
 Red. masses --      1.0943                 1.1027                 1.1029
 Frc consts  --      6.1133                 6.2466                 6.3565
 IR Inten    --      9.9307                40.4969                47.4036

                     40                     41                     42
                      A                      A                      A
 Frequencies --   3134.8621              3539.3904              3624.3989
 Red. masses --      1.1020                 1.0504                 1.0931
 Frc consts  --      6.3804                 7.7526                 8.4605
 IR Inten    --     29.9717                 0.1226                 3.4178

 - Thermochemistry -
 -------------------
 Temperature     0.001 Kelvin.  Pressure   1.00000 Atm.
 Atom     1 has atomic number  6 and mass  12.00000

 Molecular mass:    73.08915 amu.
 Principal axes and moments of inertia in atomic units:
                           1         2         3
     Eigenvalues --    99.98006 914.53108 965.30352
           X            0.99995   0.00832   0.00601
           Y           -0.00810   0.99936  -0.03496
           Z           -0.00630   0.03491   0.99937
 This molecule is an asymmetric top.
 Rotational symmetry number  1.
 Rotational temperatures (Kelvin)      0.86631     0.09471     0.08973
 Rotational constants (GHZ):          18.05101     1.97341     1.86961
 Zero-point vibrational energy     395956.5 (Joules/Mol)
                                   94.63589 (Kcal/Mol)
 Vibrational temperatures:    148.33   172.39   263.97   358.76   373.45
          (Kelvin)            577.95   633.64  1068.35  1154.04  1220.48
                             1314.32  1377.37  1437.00  1542.82  1574.19
                             1609.79  1677.68  1765.11  1825.15  1890.75
                             1912.25  1926.44  2005.11  2036.66  2067.46
                             2145.79  2155.21  2166.07  2175.56  2193.91
                             2388.19  4304.17  4365.49  4386.00  4399.25
                             4423.11  4430.31  4461.31  4499.97  4510.37
                             5092.39  5214.70

 Zero-point correction=                           0.150812 (Hartree/Particle)
 Thermal correction to Energy=                    0.150812
 Thermal correction to Enthalpy=                  0.150812
 Thermal correction to Gibbs Free Energy=         0.150812
 Sum of electronic and zero-point Energies=           -213.597043
 Sum of electronic and thermal Energies=              -213.597043
 Sum of electronic and thermal Enthalpies=            -213.597043
 Sum of electronic and thermal Free Energies=         -213.597043

                     E (Thermal)             CV                S
                      KCal/Mol        Cal/Mol-Kelvin    Cal/Mol-Kelvin
 Total                   94.636              5.962            -35.432
 Electronic               0.000              0.000              0.000
 Translational            0.000              2.981            -23.840
 Rotational               0.000              2.981            -11.592
 Vibrational             94.636              0.000              0.000

 Optimization completed.
    -- Stationary point found.
 Normal termination of Gaussian 16 at Sun Oct 13 20:28:51 2019.
