 Gaussian 16, Revision A.03,
 Gaussian 16:  ES64L-G16RevA.03 25-Dec-2016

 -------------------------------------------------------------------
 #P opt freq m062x/6-311++g(d,p) geom=connectivity temperature=0.001
 -------------------------------------------------------------------

 -------------------
 Title Card Required
 -------------------
 Symbolic Z-matrix:
 Charge =  1 Multiplicity = 1

 SCF Done:  E(RM062X) =  -214.085349737     A.U. after   11 cycles
 SCF Done:  E(RM062X) =  -214.100513852     A.U. after   10 cycles
 SCF Done:  E(RM062X) =  -214.104261298     A.U. after    9 cycles
 SCF Done:  E(RM062X) =  -214.105199587     A.U. after    9 cycles
 SCF Done:  E(RM062X) =  -214.105463028     A.U. after    9 cycles
 SCF Done:  E(RM062X) =  -214.105617047     A.U. after    8 cycles
 SCF Done:  E(RM062X) =  -214.102297581     A.U. after   10 cycles
 SCF Done:  E(RM062X) =  -214.098331948     A.U. after   10 cycles
 SCF Done:  E(RM062X) =  -214.088606708     A.U. after   10 cycles
 SCF Done:  E(RM062X) =  -214.105618448     A.U. after    5 cycles
 SCF Done:  E(RM062X) =  -214.107006955     A.U. after   10 cycles
 SCF Done:  E(RM062X) =  -214.107963105     A.U. after   10 cycles
 SCF Done:  E(RM062X) =  -214.108801274     A.U. after   10 cycles
 SCF Done:  E(RM062X) =  -214.108362386     A.U. after   10 cycles
 SCF Done:  E(RM062X) =  -214.108907782     A.U. after   10 cycles
 SCF Done:  E(RM062X) =  -214.108915093     A.U. after    8 cycles
 SCF Done:  E(RM062X) =  -214.108915397     A.U. after    6 cycles
 Optimization completed.
    -- Stationary point found.
 Normal termination of Gaussian 16 at Sun Oct 13 20:29:42 2019.

 ----------------------------------------------------------------------
 #P Geom=AllCheck Guess=TCheck SCRF=Check GenChk RM062X/6-311++G(d,p) F
 req
 ----------------------------------------------------------------------

 Structure from the checkpoint file:  "18_p.chk"
 -------------------
 Title Card Required
 -------------------
 Charge =  1 Multiplicity = 1

                         Standard orientation:
 ---------------------------------------------------------------------
 Center     Atomic      Atomic             Coordinates (Angstroms)
 Number     Number       Type             X           Y           Z
 ---------------------------------------------------------------------
      1          6           0       -2.574735   -0.331914   -0.000049
      2          6           0       -1.317527    0.533370    0.000042
      3          6           0       -0.045913   -0.321446    0.000060
      4          6           0        1.194084    0.552723   -0.000047
      5          7           0        2.446420   -0.308405   -0.000006
      6          1           0       -2.611845   -0.971472    0.884343
      7          1           0       -3.469319    0.290336    0.000246
      8          1           0       -2.612072   -0.970953   -0.884794
      9          1           0       -1.313937    1.184802   -0.879022
     10          1           0       -1.314002    1.184717    0.879185
     11          1           0       -0.044652   -0.969464    0.884217
     12          1           0       -0.044684   -0.969713   -0.883924
     13          1           0        1.256115    1.182087   -0.888153
     14          1           0        1.256216    1.182272    0.887929
     15          1           0        2.466915   -0.916003    0.824786
     16          1           0        2.467063   -0.915762   -0.824980
     17          1           0        3.303812    0.251596    0.000172
 ---------------------------------------------------------------------

 SCF Done:  E(RM062X) =  -214.108915397     A.U. after    1 cycles

 The electronic state is 1-A.
 Alpha  occ. eigenvalues --  -15.07239 -10.78580 -10.71042 -10.67709 -10.64349
 Alpha  occ. eigenvalues --   -1.31375  -1.07278  -0.98717  -0.90356  -0.86482
 Alpha  occ. eigenvalues --   -0.85680  -0.80974  -0.75049  -0.71755  -0.65341
 Alpha  occ. eigenvalues --   -0.64752  -0.60870  -0.58512  -0.54863  -0.53662
 Alpha  occ. eigenvalues --   -0.52955
 Alpha virt. eigenvalues --   -0.17729  -0.12950  -0.12851  -0.12014  -0.08678
 Alpha virt. eigenvalues --   -0.08379  -0.08188  -0.07830  -0.07524  -0.05647
 Alpha virt. eigenvalues --   -0.04704  -0.04140  -0.03157  -0.03121  -0.01959

 Mulliken charges:
               1
     1  C   -0.561831
     2  C   -0.201893
     3  C   -0.163522
     4  C   -0.583907
     5  N   -0.258792
     6  H    0.160553
     7  H    0.198750
     8  H    0.160593
     9  H    0.169871
    10  H    0.169881
    11  H    0.166334
    12  H    0.166337
    13  H    0.256088
    14  H    0.256079
    15  H    0.352709
    16  H    0.352727
    17  H    0.360023
 Sum of Mulliken charges =   1.00000

 Dipole moment (field-independent basis, Debye):
    X=              8.7421    Y=             -0.8311    Z=             -0.0001  Tot=              8.7815
 Quadrupole moment (field-independent basis, Debye-Ang):
   XX=             -2.4120   YY=            -29.2694   ZZ=            -29.4680
   XY=             -3.0496   XZ=             -0.0001   YZ=              0.0001

  Exact polarizability:  64.453   0.036  50.579   0.000   0.000  47.417
 Approx polarizability:  62.377  -0.474  60.727   0.000  -0.000  59.563

                      1                      2                      3
                      A                      A                      A
 Frequencies --    100.0710               112.1300               176.1737
 Red. masses --      1.5706                 2.4020                 2.6663
 Frc consts  --      0.0093                 0.0178                 0.0488
 IR Inten    --      0.7340                 3.7932                 5.7179

                      4                      5                      6
                      A                      A                      A
 Frequencies --    229.8409               247.8807               393.6879
 Red. masses --      1.0809                 1.1364                 3.2938
 Frc consts  --      0.0336                 0.0411                 0.3008
 IR Inten    --      0.0007                 0.0038                 3.5528

                      7                      8                      9
                      A                      A                      A
 Frequencies --    405.6076               747.0236               794.1820
 Red. masses --      2.5207                 1.0667                 1.1124
 Frc consts  --      0.2443                 0.3507                 0.4134
 IR Inten    --      5.8734                 6.0244                 1.2714

                     10                     11                     12
                      A                      A                      A
 Frequencies --    891.6311               898.7514               916.2114
 Red. masses --      1.9464                 1.1416                 2.6088
 Frc consts  --      0.9117                 0.5433                 1.2903
 IR Inten    --     18.0183                 8.6498                 5.7938

                     13                     14                     15
                      A                      A                      A
 Frequencies --    998.1154              1001.8833              1063.7160
 Red. masses --      1.9394                 1.1168                 2.3992
 Frc consts  --      1.1384                 0.6605                 1.5994
 IR Inten    --      3.8969                 2.4391                10.2491

                     16                     17                     18
                      A                      A                      A
 Frequencies --   1085.5085              1180.7821              1213.5979
 Red. masses --      2.0509                 2.2184                 1.7542
 Frc consts  --      1.4238                 1.8223                 1.5222
 IR Inten    --     14.5389                 9.0679                 1.4605

                     19                     20                     21
                      A                      A                      A
 Frequencies --   1297.5218              1307.2996              1341.9010
 Red. masses --      1.3047                 1.3161                 1.0488
 Frc consts  --      1.2942                 1.3252                 1.1127
 IR Inten    --      2.3807                 1.1371                 2.2140

                     22                     23                     24
                      A                      A                      A
 Frequencies --   1355.7521              1392.7496              1416.5189
 Red. masses --      1.1398                 1.4319                 1.4163
 Frc consts  --      1.2343                 1.6365                 1.6744
 IR Inten    --      2.1711                 2.1825                13.9085

                     25                     26                     27
                      A                      A                      A
 Frequencies --   1427.8505              1492.5001              1495.3147
 Red. masses --      1.2470                 1.0937                 1.0685
 Frc consts  --      1.4979                 1.4354                 1.4077
 IR Inten    --      3.2156                 1.4018                 8.0377

                     28                     29                     30
                      A                      A                      A
 Frequencies --   1506.8302              1507.0751              1514.5860
 Red. masses --      1.0372                 1.0844                 1.1319
 Frc consts  --      1.3875                 1.4511                 1.5298
 IR Inten    --     13.6656                 3.4966               113.0639

                     31                     32                     33
                      A                      A                      A
 Frequencies --   1518.0938              1659.5372              1665.5036
 Red. masses --      1.1202                 1.0404                 1.0432
 Frc consts  --      1.5210                 1.6883                 1.7049
 IR Inten    --     57.5981                52.5132                36.6612

                     34                     35                     36
                      A                      A                      A
 Frequencies --   3041.2061              3062.6610              3071.3638
 Red. masses --      1.0589                 1.0582                 1.0385
 Frc consts  --      5.7705                 5.8479                 5.7716
 IR Inten    --      7.9166                10.4916                17.7711

                     37                     38                     39
                      A                      A                      A
 Frequencies --   3082.2978              3106.7358              3111.2778
 Red. masses --      1.1049                 1.1062                 1.0594
 Frc consts  --      6.1846                 6.2908                 6.0422
 IR Inten    --      1.5228                 9.4333                 1.5981

                     40                     41                     42
                      A                      A                      A
 Frequencies --   3143.0675              3159.7839              3172.2498
 Red. masses --      1.1040                 1.1017                 1.1122
 Frc consts  --      6.4259                 6.4810                 6.5942
 IR Inten    --     20.0126                 7.0106                 0.7264

                     43                     44                     45
                      A                      A                      A
 Frequencies --   3421.2377              3503.9518              3511.7323
 Red. masses --      1.0306                 1.0934                 1.0939
 Frc consts  --      7.1073                 7.9096                 7.9479
 IR Inten    --     57.2616               107.9973               116.0768

 - Thermochemistry -
 -------------------
 Temperature     0.001 Kelvin.  Pressure   1.00000 Atm.
 Atom     1 has atomic number  6 and mass  12.00000

 Molecular mass:    74.09697 amu.
 Principal axes and moments of inertia in atomic units:
                           1         2         3
     Eigenvalues --   106.86078 945.63674 997.70743
           X            1.00000   0.00139   0.00000
           Y           -0.00139   1.00000   0.00000
           Z           -0.00000  -0.00000   1.00000
 This molecule is an asymmetric top.
 Rotational symmetry number  1.
 Rotational temperatures (Kelvin)      0.81053     0.09159     0.08681
 Rotational constants (GHZ):          16.88871     1.90849     1.80889
 Zero-point vibrational energy     435102.1 (Joules/Mol)
                                  103.99190 (Kcal/Mol)
 Vibrational temperatures:    143.98   161.33   253.47   330.69   356.65
          (Kelvin)            566.43   583.58  1074.80  1142.65  1282.86
                             1293.10  1318.22  1436.07  1441.49  1530.45
                             1561.80  1698.88  1746.10  1866.84  1880.91
                             1930.70  1950.62  2003.86  2038.05  2054.36
                             2147.37  2151.42  2167.99  2168.34  2179.15
                             2184.20  2387.70  2396.29  4375.62  4406.49
                             4419.01  4434.74  4469.90  4476.43  4522.17
                             4546.22  4564.16  4922.40  5041.41  5052.60

 Zero-point correction=                           0.165722 (Hartree/Particle)
 Thermal correction to Energy=                    0.165722
 Thermal correction to Enthalpy=                  0.165722
 Thermal correction to Gibbs Free Energy=         0.165722
 Sum of electronic and zero-point Energies=           -213.943194
 Sum of electronic and thermal Energies=              -213.943194
 Sum of electronic and thermal Enthalpies=            -213.943194
 Sum of electronic and thermal Free Energies=         -213.943194

                     E (Thermal)             CV                S
                      KCal/Mol        Cal/Mol-Kelvin    Cal/Mol-Kelvin
 Total                  103.992              5.962            -35.259
 Electronic               0.000              0.000              0.000
 Translational            0.000              2.981            -23.799
 Rotational               0.000              2.981            -11.460
 Vibrational            103.992              0.000              0.000

 Optimization completed.
    -- Stationary point found.
 Normal termination of Gaussian 16 at Sun Oct 13 20:30:34 2019.
