 Gaussian 16, Revision A.03,
 Gaussian 16:  ES64L-G16RevA.03 25-Dec-2016

 -------------------------------------------------------------------
 #p opt freq m062x/6-311++g(d,p) geom=connectivity temperature=0.001
 -------------------------------------------------------------------

 -------------------
 Title Card Required
 -------------------
 Symbolic Z-matrix:
 Charge =  0 Multiplicity = 1

 SCF Done:  E(RM062X) =  -287.517831530     A.U. after   14 cycles
 SCF Done:  E(RM062X) =  -287.545175554     A.U. after   13 cycles
 SCF Done:  E(RM062X) =  -287.552764839     A.U. after   13 cycles
 SCF Done:  E(RM062X) =  -287.553343046     A.U. after   12 cycles
 SCF Done:  E(RM062X) =  -287.553483663     A.U. after   12 cycles
 SCF Done:  E(RM062X) =  -287.553560807     A.U. after   12 cycles
 SCF Done:  E(RM062X) =  -287.553583330     A.U. after   11 cycles
 SCF Done:  E(RM062X) =  -287.553584615     A.U. after   10 cycles
 SCF Done:  E(RM062X) =  -287.553584747     A.U. after    8 cycles
 Optimization completed.
    -- Stationary point found.
 Normal termination of Gaussian 16 at Mon Oct 14 10:35:28 2019.

 ----------------------------------------------------------------------
 #P Geom=AllCheck Guess=TCheck SCRF=Check GenChk RM062X/6-311++G(d,p) F
 req
 ----------------------------------------------------------------------

 Structure from the checkpoint file:  "19.chk"
 -------------------
 Title Card Required
 -------------------
 Charge =  0 Multiplicity = 1

                         Standard orientation:
 ---------------------------------------------------------------------
 Center     Atomic      Atomic             Coordinates (Angstroms)
 Number     Number       Type             X           Y           Z
 ---------------------------------------------------------------------
      1          7           0       -2.328009   -0.000003   -0.073434
      2          6           0       -0.933178   -0.000021   -0.009190
      3          6           0       -0.220873   -1.203775   -0.006778
      4          6           0        1.167476   -1.198490    0.003492
      5          6           0        1.874517    0.000002    0.009582
      6          6           0        1.167504    1.198492    0.003660
      7          6           0       -0.220866    1.203757   -0.006675
      8          1           0       -2.771924   -0.835978    0.276129
      9          1           0       -2.771888    0.836157    0.275730
     10          1           0       -0.762877   -2.143595   -0.017383
     11          1           0        1.700531   -2.142247    0.007300
     12          1           0        2.957005   -0.000087    0.018570
     13          1           0        1.700443    2.142322    0.006898
     14          1           0       -0.762710    2.143659   -0.017760
 ---------------------------------------------------------------------

 SCF Done:  E(RM062X) =  -287.553584747     A.U. after    1 cycles

 The electronic state is 1-A.
 Alpha  occ. eigenvalues --  -14.75336 -10.58401 -10.54095 -10.54094 -10.53600
 Alpha  occ. eigenvalues --  -10.53599 -10.53046  -1.03087  -0.94201  -0.84190
 Alpha  occ. eigenvalues --   -0.82102  -0.69682  -0.68084  -0.60187  -0.58357
 Alpha  occ. eigenvalues --   -0.54980  -0.50038  -0.49453  -0.48489  -0.45874
 Alpha  occ. eigenvalues --   -0.41763  -0.39959  -0.38070  -0.30599  -0.26112
 Alpha virt. eigenvalues --   -0.00446   0.00862   0.01081   0.02048   0.02920
 Alpha virt. eigenvalues --    0.03045   0.03556   0.05913   0.06274   0.07248
 Alpha virt. eigenvalues --    0.07656   0.09847   0.10183   0.11549   0.12593

 Mulliken charges:
               1
     1  N   -0.316323
     2  C   -0.304759
     3  C   -0.061346
     4  C   -0.150340
     5  C   -0.332194
     6  C   -0.150283
     7  C   -0.060980
     8  H    0.242735
     9  H    0.242745
    10  H    0.160197
    11  H    0.198095
    12  H    0.174125
    13  H    0.198103
    14  H    0.160225
 Sum of Mulliken charges =  -0.00000

 Dipole moment (field-independent basis, Debye):
    X=             -1.1264    Y=              0.0002    Z=              1.0137  Tot=              1.5153
 Quadrupole moment (field-independent basis, Debye-Ang):
   XX=            -35.3659   YY=            -36.4726   ZZ=            -47.5765
   XY=             -0.0008   XZ=             -3.2801   YZ=             -0.0026

  Exact polarizability:  98.198   0.000  82.645   0.293   0.001  46.387
 Approx polarizability: 121.641   0.001 108.876   0.747   0.003  59.214

                      1                      2                      3
                      A                      A                      A
 Frequencies --    221.7449               295.2620               385.4797
 Red. masses --      3.5964                 1.0438                 2.8935
 Frc consts  --      0.1042                 0.0536                 0.2533
 IR Inten    --      5.5841                19.5820                 0.4445

                      4                      5                      6
                      A                      A                      A
 Frequencies --    416.7939               504.7505               536.5335
 Red. masses --      2.8892                 2.2324                 6.3790
 Frc consts  --      0.2957                 0.3351                 1.0819
 IR Inten    --      0.3530                76.4405                 4.3768

                      7                      8                      9
                      A                      A                      A
 Frequencies --    598.0960               632.7729               704.0290
 Red. masses --      1.3985                 6.3220                 2.0019
 Frc consts  --      0.2947                 1.4914                 0.5846
 IR Inten    --    246.4763                 0.3045                27.8394

                     10                     11                     12
                      A                      A                      A
 Frequencies --    771.0823               838.9382               839.0819
 Red. masses --      1.7733                 1.2592                 4.4032
 Frc consts  --      0.6212                 0.5222                 1.8265
 IR Inten    --     81.3929                 0.0361                 4.5808

                     13                     14                     15
                      A                      A                      A
 Frequencies --    900.4692               985.5820              1002.3761
 Red. masses --      1.4841                 1.3587                 1.2760
 Frc consts  --      0.7090                 0.7776                 0.7554
 IR Inten    --      7.5174                 0.0102                 0.0423

                     16                     17                     18
                      A                      A                      A
 Frequencies --   1011.7406              1060.6765              1076.2866
 Red. masses --      5.6520                 2.0650                 1.5377
 Frc consts  --      3.4087                 1.3688                 1.0495
 IR Inten    --      0.5822                 4.3259                 2.6888

                     19                     20                     21
                      A                      A                      A
 Frequencies --   1136.9483              1176.2286              1200.1557
 Red. masses --      1.2478                 1.1159                 1.1117
 Frc consts  --      0.9503                 0.9096                 0.9434
 IR Inten    --      6.0975                 1.6431                 9.4922

                     22                     23                     24
                      A                      A                      A
 Frequencies --   1312.5677              1339.6435              1362.2596
 Red. masses --      3.0547                 4.9600                 1.2881
 Frc consts  --      3.1007                 5.2445                 1.4083
 IR Inten    --     61.8411                 8.0976                 0.0295

                     25                     26                     27
                      A                      A                      A
 Frequencies --   1511.2536              1543.8461              1657.9683
 Red. masses --      2.4484                 2.5199                 1.2771
 Frc consts  --      3.2947                 3.5387                 2.0684
 IR Inten    --      1.7722                72.9258                27.6748

                     28                     29                     30
                      A                      A                      A
 Frequencies --   1661.4712              1685.6665              3192.4551
 Red. masses --      6.1258                 4.0273                 1.0869
 Frc consts  --      9.9632                 6.7423                 6.5264
 IR Inten    --      5.5158               163.6789                12.1078

                     31                     32                     33
                      A                      A                      A
 Frequencies --   3193.8529              3208.8050              3214.1898
 Red. masses --      1.0888                 1.0907                 1.0947
 Frc consts  --      6.5441                 6.6166                 6.6633
 IR Inten    --      2.0297                 1.9894                18.5975

                     34                     35                     36
                      A                      A                      A
 Frequencies --   3230.6580              3601.9425              3704.4060
 Red. masses --      1.0981                 1.0481                 1.0990
 Frc consts  --      6.7527                 8.0116                 8.8852
 IR Inten    --      6.9147                26.3340                23.2981

 - Thermochemistry -
 -------------------
 Temperature     0.001 Kelvin.  Pressure   1.00000 Atm.
 Atom     1 has atomic number  7 and mass  14.00307

 Molecular mass:    93.05785 amu.
 Principal axes and moments of inertia in atomic units:
                           1         2         3
     Eigenvalues --   319.22493 692.488931010.14275
           X            0.99997  -0.00000  -0.00733
           Y            0.00000   1.00000  -0.00002
           Z            0.00733   0.00002   0.99997
 This molecule is an asymmetric top.
 Rotational symmetry number  1.
 Rotational temperatures (Kelvin)      0.27133     0.12508     0.08574
 Rotational constants (GHZ):           5.65351     2.60617     1.78662
 Zero-point vibrational energy     309330.5 (Joules/Mol)
                                   73.93175 (Kcal/Mol)
 Vibrational temperatures:    319.04   424.82   554.62   599.67   726.22
          (Kelvin)            771.95   860.53   910.42  1012.94  1109.42
                             1207.05  1207.25  1295.57  1418.03  1442.20
                             1455.67  1526.08  1548.54  1635.82  1692.33
                             1726.76  1888.49  1927.45  1959.99  2174.36
                             2221.25  2385.45  2390.49  2425.30  4593.23
                             4595.24  4616.75  4624.50  4648.20  5182.39
                             5329.81

 Zero-point correction=                           0.117818 (Hartree/Particle)
 Thermal correction to Energy=                    0.117818
 Thermal correction to Enthalpy=                  0.117818
 Thermal correction to Gibbs Free Energy=         0.117818
 Sum of electronic and zero-point Energies=           -287.435767
 Sum of electronic and thermal Energies=              -287.435767
 Sum of electronic and thermal Enthalpies=            -287.435767
 Sum of electronic and thermal Free Energies=         -287.435767

                     E (Thermal)             CV                S
                      KCal/Mol        Cal/Mol-Kelvin    Cal/Mol-Kelvin
 Total                   73.932              5.962            -33.790
 Electronic               0.000              0.000              0.000
 Translational            0.000              2.981            -23.120
 Rotational               0.000              2.981            -10.670
 Vibrational             73.932              0.000              0.000

 Optimization completed.
    -- Stationary point found.
 Normal termination of Gaussian 16 at Mon Oct 14 10:36:21 2019.
