 Gaussian 16, Revision A.03,
 Gaussian 16:  ES64L-G16RevA.03 25-Dec-2016

 -------------------------------------------------------------------
 #p opt freq m062x/6-311++g(d,p) geom=connectivity temperature=0.001
 -------------------------------------------------------------------

 -------------------
 Title Card Required
 -------------------
 Symbolic Z-matrix:
 Charge =  1 Multiplicity = 1

 SCF Done:  E(RM062X) =  -287.878526566     A.U. after   13 cycles
 SCF Done:  E(RM062X) =  -287.896197026     A.U. after   11 cycles
 SCF Done:  E(RM062X) =  -287.897229448     A.U. after   11 cycles
 SCF Done:  E(RM062X) =  -287.897379457     A.U. after    9 cycles
 SCF Done:  E(RM062X) =  -287.897390551     A.U. after    9 cycles
 SCF Done:  E(RM062X) =  -287.897391172     A.U. after    8 cycles
 Optimization completed.
    -- Stationary point found.
 Normal termination of Gaussian 16 at Mon Oct 14 10:55:45 2019.

 ----------------------------------------------------------------------
 #P Geom=AllCheck Guess=TCheck SCRF=Check GenChk RM062X/6-311++G(d,p) F
 req
 ----------------------------------------------------------------------

 Structure from the checkpoint file:  "19_p.chk"
 -------------------
 Title Card Required
 -------------------
 Charge =  1 Multiplicity = 1

                         Standard orientation:
 ---------------------------------------------------------------------
 Center     Atomic      Atomic             Coordinates (Angstroms)
 Number     Number       Type             X           Y           Z
 ---------------------------------------------------------------------
      1          7           0       -2.313826    0.000131    0.007689
      2          6           0       -0.823607    0.000930   -0.009412
      3          6           0       -0.168126    1.219257   -0.005560
      4          6           0        1.222970    1.207962    0.001445
      5          6           0        1.911355   -0.000632    0.005638
      6          6           0        1.220826   -1.209049    0.001529
      7          6           0       -0.169471   -1.219046   -0.005635
      8          1           0       -2.689991   -0.762914   -0.564282
      9          1           0       -2.681553   -0.110587    0.959353
     10          1           0       -0.712279    2.157843   -0.009139
     11          1           0        1.763229    2.145885    0.000882
     12          1           0        2.994084   -0.001531    0.008873
     13          1           0        1.760328   -2.147432    0.001070
     14          1           0       -0.715534   -2.156477   -0.009298
     15          1           0       -2.685181    0.877772   -0.369319
 ---------------------------------------------------------------------

 SCF Done:  E(RM062X) =  -287.897391172     A.U. after    1 cycles

 The electronic state is 1-A.
 Alpha  occ. eigenvalues --  -15.07608 -10.77940 -10.72325 -10.72273 -10.70682
 Alpha  occ. eigenvalues --  -10.70666 -10.70124  -1.31907  -1.13467  -1.02095
 Alpha  occ. eigenvalues --   -1.01701  -0.89241  -0.87627  -0.85876  -0.82555
 Alpha  occ. eigenvalues --   -0.79386  -0.72919  -0.68808  -0.67103  -0.66108
 Alpha  occ. eigenvalues --   -0.61287  -0.58333  -0.57563  -0.48059  -0.47691
 Alpha virt. eigenvalues --   -0.17256  -0.15413  -0.14898  -0.12252  -0.11392
 Alpha virt. eigenvalues --   -0.10865  -0.08522  -0.08004  -0.07927  -0.06035
 Alpha virt. eigenvalues --   -0.05772  -0.04253  -0.03781  -0.02927  -0.02352

 Mulliken charges:
               1
     1  N   -0.202816
     2  C   -0.401976
     3  C    0.058539
     4  C   -0.176566
     5  C   -0.264881
     6  C   -0.188927
     7  C   -0.077386
     8  H    0.356153
     9  H    0.383583
    10  H    0.206722
    11  H    0.257086
    12  H    0.232958
    13  H    0.256475
    14  H    0.210619
    15  H    0.350416
 Sum of Mulliken charges =   1.00000

 Dipole moment (field-independent basis, Debye):
    X=             -7.1344    Y=             -0.0069    Z=              0.0487  Tot=              7.1346
 Quadrupole moment (field-independent basis, Debye-Ang):
   XX=             -7.0318   YY=            -29.9625   ZZ=            -42.1231
   XY=              0.0052   XZ=             -0.0548   YZ=              0.0014

  Exact polarizability:  85.632   0.069  77.774  -0.077   0.000  41.439
 Approx polarizability: 106.796   0.113 105.150   0.018  -0.001  54.226

                      1                      2                      3
                      A                      A                      A
 Frequencies --     22.7363               214.9194               353.0962
 Red. masses --      1.0320                 3.1610                 2.7079
 Frc consts  --      0.0003                 0.0860                 0.1989
 IR Inten    --      0.1467                21.6637                 9.9081

                      4                      5                      6
                      A                      A                      A
 Frequencies --    409.5063               459.1063               524.3671
 Red. masses --      2.8328                 2.9239                 5.2739
 Frc consts  --      0.2799                 0.3631                 0.8544
 IR Inten    --      0.0401                19.7461                 7.3510

                      7                      8                      9
                      A                      A                      A
 Frequencies --    624.6937               690.9898               754.9547
 Red. masses --      6.3156                 2.8886                 1.2551
 Frc consts  --      1.4521                 0.8126                 0.4215
 IR Inten    --      0.1315                14.3616                72.3987

                     10                     11                     12
                      A                      A                      A
 Frequencies --    791.0858               842.3294               934.2268
 Red. masses --      4.9384                 1.2583                 1.2798
 Frc consts  --      1.8209                 0.5260                 0.6581
 IR Inten    --      0.7017                 0.0130                 0.0559

                     13                     14                     15
                      A                      A                      A
 Frequencies --   1008.1455              1012.3704              1017.8454
 Red. masses --      1.3708                 1.5809                 3.6313
 Frc consts  --      0.8209                 0.9547                 2.2166
 IR Inten    --      0.6317                 4.3668                 6.4890

                     16                     17                     18
                      A                      A                      A
 Frequencies --   1042.7112              1055.3540              1078.0936
 Red. masses --      1.3232                 2.2589                 1.3835
 Frc consts  --      0.8476                 1.4823                 0.9474
 IR Inten    --      0.0166                 0.6695                21.8697

                     19                     20                     21
                      A                      A                      A
 Frequencies --   1122.7987              1187.1341              1194.7733
 Red. masses --      1.4161                 2.4570                 1.1530
 Frc consts  --      1.0518                 2.0401                 0.9697
 IR Inten    --      8.5360                 1.4512                 0.4911

                     22                     23                     24
                      A                      A                      A
 Frequencies --   1207.6530              1342.5745              1360.7928
 Red. masses --      1.2382                 5.2729                 1.2945
 Frc consts  --      1.0639                 5.5999                 1.4123
 IR Inten    --      0.0225                 8.7542                 0.2230

                     25                     26                     27
                      A                      A                      A
 Frequencies --   1513.0144              1514.9913              1535.6256
 Red. masses --      2.1527                 1.3059                 2.1132
 Frc consts  --      2.9035                 1.7659                 2.9360
 IR Inten    --     20.9480               148.2342                 5.1273

                     28                     29                     30
                      A                      A                      A
 Frequencies --   1645.9651              1647.0459              1660.0440
 Red. masses --      1.0707                 1.1837                 5.7751
 Frc consts  --      1.7091                 1.8919                 9.3767
 IR Inten    --     48.6498                51.1229                 1.3369

                     31                     32                     33
                      A                      A                      A
 Frequencies --   1698.1373              3203.9882              3204.6999
 Red. masses --      3.5390                 1.0927                 1.0927
 Frc consts  --      6.0127                 6.6087                 6.6118
 IR Inten    --      0.3576                 1.0544                 1.1517

                     34                     35                     36
                      A                      A                      A
 Frequencies --   3226.2727              3237.4817              3243.3513
 Red. masses --      1.0905                 1.0948                 1.0992
 Frc consts  --      6.6877                 6.7609                 6.8129
 IR Inten    --      0.0062                 1.9251                 1.6174

                     37                     38                     39
                      A                      A                      A
 Frequencies --   3408.3282              3482.4134              3499.2900
 Red. masses --      1.0315                 1.0926                 1.0928
 Frc consts  --      7.0598                 7.8067                 7.8839
 IR Inten    --     80.6224               128.9213               102.5171

 - Thermochemistry -
 -------------------
 Temperature     0.001 Kelvin.  Pressure   1.00000 Atm.
 Atom     1 has atomic number  7 and mass  14.00307

 Molecular mass:    94.06567 amu.
 Principal axes and moments of inertia in atomic units:
                           1         2         3
     Eigenvalues --   329.09585 724.524891043.69850
           X            1.00000  -0.00003  -0.00010
           Y            0.00003   1.00000   0.00000
           Z            0.00010  -0.00000   1.00000
 This molecule is an asymmetric top.
 Rotational symmetry number  1.
 Rotational temperatures (Kelvin)      0.26319     0.11955     0.08299
 Rotational constants (GHZ):           5.48394     2.49093     1.72918
 Zero-point vibrational energy     346755.0 (Joules/Mol)
                                   82.87643 (Kcal/Mol)
 Vibrational temperatures:     32.71   309.22   508.03   589.19   660.55
          (Kelvin)            754.45   898.79   994.18  1086.21  1138.20
                             1211.92  1344.14  1450.50  1456.58  1464.45
                             1500.23  1518.42  1551.14  1615.46  1708.02
                             1719.01  1737.54  1931.67  1957.88  2176.89
                             2179.73  2209.42  2368.18  2369.73  2388.43
                             2443.24  4609.82  4610.85  4641.89  4658.01
                             4666.46  4903.82  5010.42  5034.70

 Zero-point correction=                           0.132072 (Hartree/Particle)
 Thermal correction to Energy=                    0.132072
 Thermal correction to Enthalpy=                  0.132072
 Thermal correction to Gibbs Free Energy=         0.132072
 Sum of electronic and zero-point Energies=           -287.765319
 Sum of electronic and thermal Energies=              -287.765319
 Sum of electronic and thermal Enthalpies=            -287.765319
 Sum of electronic and thermal Free Energies=         -287.765319

                     E (Thermal)             CV                S
                      KCal/Mol        Cal/Mol-Kelvin    Cal/Mol-Kelvin
 Total                   82.876              5.962            -33.650
 Electronic               0.000              0.000              0.000
 Translational            0.000              2.981            -23.088
 Rotational               0.000              2.981            -10.563
 Vibrational             82.876              0.000              0.000

                           ! Non-Optimized Parameters !
 Normal termination of Gaussian 16 at Mon Oct 14 10:56:43 2019.
