 Gaussian 16, Revision A.03,
 Gaussian 16:  ES64L-G16RevA.03 25-Dec-2016

 -------------------------------------------------------------------
 #P opt freq m062x/6-311++g(d,p) geom=connectivity temperature=0.001
 -------------------------------------------------------------------

 -------------------
 Title Card Required
 -------------------
 Symbolic Z-matrix:
 Charge =  0 Multiplicity = 1

 SCF Done:  E(RM062X) =  -607.485445189     A.U. after   17 cycles
 SCF Done:  E(RM062X) =  -607.530570107     A.U. after   15 cycles
 SCF Done:  E(RM062X) =  -607.546836703     A.U. after   14 cycles
 SCF Done:  E(RM062X) =  -607.553734464     A.U. after   15 cycles
 SCF Done:  E(RM062X) =  -607.558844447     A.U. after   15 cycles
 SCF Done:  E(RM062X) =  -607.561281145     A.U. after   13 cycles
 SCF Done:  E(RM062X) =  -607.563519440     A.U. after   14 cycles
 SCF Done:  E(RM062X) =  -607.564654660     A.U. after   14 cycles
 SCF Done:  E(RM062X) =  -607.568339927     A.U. after   15 cycles
 SCF Done:  E(RM062X) =  -607.570835992     A.U. after   14 cycles
 SCF Done:  E(RM062X) =  -607.574918316     A.U. after   14 cycles
 SCF Done:  E(RM062X) =  -607.576399386     A.U. after   14 cycles
 SCF Done:  E(RM062X) =  -607.577034298     A.U. after   14 cycles
 SCF Done:  E(RM062X) =  -607.577260748     A.U. after   12 cycles
 SCF Done:  E(RM062X) =  -607.577309029     A.U. after   11 cycles
 SCF Done:  E(RM062X) =  -607.577313537     A.U. after   11 cycles
 SCF Done:  E(RM062X) =  -607.577314600     A.U. after   10 cycles
 SCF Done:  E(RM062X) =  -607.577314802     A.U. after   10 cycles
 Optimization completed.
    -- Stationary point found.
 Normal termination of Gaussian 16 at Sun Oct 13 23:18:05 2019.

 ----------------------------------------------------------------------
 #P Geom=AllCheck Guess=TCheck SCRF=Check GenChk RM062X/6-311++G(d,p) F
 req
 ----------------------------------------------------------------------

 Structure from the checkpoint file:  "2.chk"
 -------------------
 Title Card Required
 -------------------
 Charge =  0 Multiplicity = 1

                         Standard orientation:
 ---------------------------------------------------------------------
 Center     Atomic      Atomic             Coordinates (Angstroms)
 Number     Number       Type             X           Y           Z
 ---------------------------------------------------------------------
      1          8           0        0.047938    3.028807    0.000648
      2          7           0        1.037536    2.079970    0.000407
      3          6           0        0.556708    0.902536   -0.000524
      4          6           0        1.429486   -0.311835   -0.000200
      5          8           0        2.741205   -0.186501   -0.000633
      6          6           0        3.472149   -1.414670   -0.000010
      7          7           0        0.775641   -1.414932    0.000346
      8          6           0       -0.598536   -1.049865    0.000241
      9          6           0       -1.672462   -1.917996    0.000639
     10          6           0       -2.957924   -1.366946    0.000275
     11          6           0       -3.158236    0.010505   -0.000495
     12          6           0       -2.071668    0.889816   -0.000711
     13          6           0       -0.798098    0.344690   -0.000390
     14          1           0        0.527007    3.862999    0.001701
     15          1           0        4.520764   -1.130832   -0.000050
     16          1           0        3.224450   -1.996495    0.888461
     17          1           0        3.224633   -1.997285   -0.888028
     18          1           0       -1.512123   -2.988772    0.001181
     19          1           0       -3.816750   -2.028059    0.000526
     20          1           0       -4.166439    0.405790   -0.000858
     21          1           0       -2.215425    1.961535   -0.001283
 ---------------------------------------------------------------------

 SCF Done:  E(RM062X) =  -607.577314802     A.U. after    1 cycles

 The electronic state is 1-A.
 Alpha  occ. eigenvalues --  -19.69359 -19.67994 -14.83413 -14.74621 -10.65313
 Alpha  occ. eigenvalues --  -10.60277 -10.59552 -10.58219 -10.55716 -10.55615
 Alpha  occ. eigenvalues --  -10.55331 -10.54685 -10.54621  -1.25030  -1.23124
 Alpha  occ. eigenvalues --   -1.07689  -0.99276  -0.95751  -0.86227  -0.84778
 Alpha  occ. eigenvalues --   -0.82930  -0.76464  -0.70170  -0.68777  -0.65175
 Alpha  occ. eigenvalues --   -0.62159  -0.60140  -0.58866  -0.57537  -0.56937
 Alpha  occ. eigenvalues --   -0.53124  -0.52701  -0.51061  -0.50594  -0.48754
 Alpha  occ. eigenvalues --   -0.48360  -0.44715  -0.43666  -0.43015  -0.42106
 Alpha  occ. eigenvalues --   -0.38134  -0.38069  -0.36462  -0.34798  -0.30498
 Alpha  occ. eigenvalues --   -0.28053
 Alpha virt. eigenvalues --   -0.05133  -0.00501   0.00434   0.00675   0.01261
 Alpha virt. eigenvalues --    0.02029   0.02886   0.03532   0.03645   0.04459
 Alpha virt. eigenvalues --    0.05481   0.05754   0.06527   0.07194   0.08325

 Mulliken charges:
               1
     1  O    0.006810
     2  N   -0.337092
     3  C    0.392612
     4  C   -0.645452
     5  O   -0.097031
     6  C   -0.323497
     7  N   -0.005970
     8  C   -0.901001
     9  C   -0.313926
    10  C   -0.191154
    11  C   -0.364101
    12  C    0.044043
    13  C    1.026092
    14  H    0.294648
    15  H    0.178640
    16  H    0.198117
    17  H    0.198121
    18  H    0.215149
    19  H    0.203754
    20  H    0.201864
    21  H    0.219377
 Sum of Mulliken charges =  -0.00000

 Dipole moment (field-independent basis, Debye):
    X=              0.1344    Y=              0.7475    Z=              0.0013  Tot=              0.7595
 Quadrupole moment (field-independent basis, Debye-Ang):
   XX=            -64.4316   YY=            -63.5657   ZZ=            -78.1142
   XY=             -1.9809   XZ=              0.0036   YZ=              0.0056

  Exact polarizability: 167.140  11.042 148.010   0.003  -0.003  67.959
 Approx polarizability: 194.087  19.279 198.170   0.002  -0.010  91.151

                      1                      2                      3
                      A                      A                      A
 Frequencies --     91.4592                99.7085               149.0283
 Red. masses --      4.0156                 3.9809                 2.7587
 Frc consts  --      0.0198                 0.0233                 0.0361
 IR Inten    --      2.3530                 5.0967                 0.2435

                      4                      5                      6
                      A                      A                      A
 Frequencies --    172.2530               191.1392               193.0673
 Red. masses --      5.1552                 4.0481                 1.2987
 Frc consts  --      0.0901                 0.0871                 0.0285
 IR Inten    --      2.3659                 1.5641                 0.1111

                      7                      8                      9
                      A                      A                      A
 Frequencies --    276.9147               300.2899               364.6219
 Red. masses --      9.2852                 5.5445                 4.4298
 Frc consts  --      0.4195                 0.2946                 0.3470
 IR Inten    --      5.6834                 2.9038                 4.4479

                     10                     11                     12
                      A                      A                      A
 Frequencies --    397.0974               408.5484               437.8957
 Red. masses --      2.5170                 7.0830                 1.5084
 Frc consts  --      0.2338                 0.6966                 0.1704
 IR Inten    --     20.6450                 1.4084                46.6844

                     13                     14                     15
                      A                      A                      A
 Frequencies --    492.5263               534.3001               569.5172
 Red. masses --      6.9311                 3.1544                 7.3686
 Frc consts  --      0.9906                 0.5306                 1.4082
 IR Inten    --     12.5372                48.6960                 1.0756

                     16                     17                     18
                      A                      A                      A
 Frequencies --    611.0071               654.6418               738.6002
 Red. masses --      4.7184                 7.7518                 3.6234
 Frc consts  --      1.0378                 1.9573                 1.1646
 IR Inten    --     17.4569                 6.4033                 5.5498

                     19                     20                     21
                      A                      A                      A
 Frequencies --    743.0818               763.1304               769.3477
 Red. masses --      5.8981                 5.5575                 5.9569
 Frc consts  --      1.9188                 1.9069                 2.0774
 IR Inten    --      5.2289                 6.4233                14.9958

                     22                     23                     24
                      A                      A                      A
 Frequencies --    791.9234               899.0244               906.4237
 Red. masses --      1.6308                 1.3345                 6.6197
 Frc consts  --      0.6026                 0.6355                 3.2044
 IR Inten    --     65.5162                 0.4983                 9.0461

                     25                     26                     27
                      A                      A                      A
 Frequencies --    978.4615               998.3165              1009.1318
 Red. masses --      1.3852                 6.1817                 1.2838
 Frc consts  --      0.7813                 3.6299                 0.7703
 IR Inten    --      2.9462                 8.1577                 0.0049

                     28                     29                     30
                      A                      A                      A
 Frequencies --   1048.0517              1068.3992              1110.2958
 Red. masses --      1.9997                10.5011                 4.6546
 Frc consts  --      1.2942                 7.0624                 3.3808
 IR Inten    --     14.3707               175.3692               150.3507

                     31                     32                     33
                      A                      A                      A
 Frequencies --   1123.9717              1177.4303              1187.0076
 Red. masses --      1.9981                 1.1701                 1.2815
 Frc consts  --      1.4872                 0.9557                 1.0638
 IR Inten    --     49.8121                 1.8823                 0.8213

                     34                     35                     36
                      A                      A                      A
 Frequencies --   1208.7891              1219.1107              1258.6763
 Red. masses --      2.7282                 1.7710                 3.4278
 Frc consts  --      2.3487                 1.5508                 3.1996
 IR Inten    --     32.9243                36.1141                 0.1113

                     37                     38                     39
                      A                      A                      A
 Frequencies --   1310.0486              1367.4545              1399.2274
 Red. masses --      1.6860                 3.6429                 1.4978
 Frc consts  --      1.7048                 4.0135                 1.7278
 IR Inten    --     72.1362                16.6265                13.9493

                     40                     41                     42
                      A                      A                      A
 Frequencies --   1442.6161              1490.2022              1492.7959
 Red. masses --      1.8140                 1.9847                 1.0412
 Frc consts  --      2.2243                 2.5968                 1.3671
 IR Inten    --    282.2662                48.5173                11.5694

                     43                     44                     45
                      A                      A                      A
 Frequencies --   1493.6593              1508.6491              1524.4622
 Red. masses --      2.3995                 1.0571                 3.0074
 Frc consts  --      3.1540                 1.4176                 4.1179
 IR Inten    --     81.3714                 9.8583                27.0101

                     46                     47                     48
                      A                      A                      A
 Frequencies --   1661.5668              1672.3457              1703.2975
 Red. masses --      6.7560                 8.7278                 8.3951
 Frc consts  --     10.9894                14.3816                14.3501
 IR Inten    --     10.3439               466.3003               104.9216

                     49                     50                     51
                      A                      A                      A
 Frequencies --   1786.3812              3080.9648              3156.5038
 Red. masses --      9.1510                 1.0308                 1.1068
 Frc consts  --     17.2055                 5.7648                 6.4973
 IR Inten    --     10.7416                30.8585                12.4023

                     52                     53                     54
                      A                      A                      A
 Frequencies --   3200.4522              3203.2153              3221.1108
 Red. masses --      1.1063                 1.0875                 1.0924
 Frc consts  --      6.6763                 6.5746                 6.6779
 IR Inten    --     11.8354                 2.3408                 7.1035

                     55                     56                     57
                      A                      A                      A
 Frequencies --   3231.2357              3249.8105              3891.5383
 Red. masses --      1.0955                 1.0944                 1.0680
 Frc consts  --      6.7390                 6.8102                 9.5290
 IR Inten    --      3.6075                 1.9244               206.2200

 - Thermochemistry -
 -------------------
 Temperature     0.001 Kelvin.  Pressure   1.00000 Atm.
 Atom     1 has atomic number  8 and mass  15.99491

 Molecular mass:   176.05858 amu.
 Principal axes and moments of inertia in atomic units:
                           1         2         3
     Eigenvalues --  1443.966892576.439414009.04782
           X            0.99954  -0.03046   0.00001
           Y            0.03046   0.99954  -0.00000
           Z           -0.00001   0.00000   1.00000
 This molecule is an asymmetric top.
 Rotational symmetry number  1.
 Warning -- assumption of classical behavior for rotation
           may cause significant error
 Rotational temperatures (Kelvin)      0.05998     0.03362     0.02160
 Rotational constants (GHZ):           1.24985     0.70048     0.45017
 Zero-point vibrational energy     424858.1 (Joules/Mol)
                                  101.54352 (Kcal/Mol)
 Vibrational temperatures:    131.59   143.46   214.42   247.83   275.01
          (Kelvin)            277.78   398.42   432.05   524.61   571.33
                              587.81   630.03   708.64   768.74   819.41
                              879.10   941.88  1062.68  1069.13  1097.97
                             1106.92  1139.40  1293.50  1304.14  1407.79
                             1436.35  1451.92  1507.91  1537.19  1597.47
                             1617.14  1694.06  1707.84  1739.18  1754.03
                             1810.95  1884.87  1967.46  2013.18  2075.60
                             2144.07  2147.80  2149.04  2170.61  2193.36
                             2390.62  2406.13  2450.67  2570.20  4432.82
                             4541.50  4604.74  4608.71  4634.46  4649.03
                             4675.75  5599.06

 Zero-point correction=                           0.161820 (Hartree/Particle)
 Thermal correction to Energy=                    0.161820
 Thermal correction to Enthalpy=                  0.161820
 Thermal correction to Gibbs Free Energy=         0.161820
 Sum of electronic and zero-point Energies=           -607.415495
 Sum of electronic and thermal Energies=              -607.415495
 Sum of electronic and thermal Enthalpies=            -607.415495
 Sum of electronic and thermal Free Energies=         -607.415495

                     E (Thermal)             CV                S
                      KCal/Mol        Cal/Mol-Kelvin    Cal/Mol-Kelvin
 Total                  101.544              5.962            -27.715
 Electronic               0.000              0.000              0.000
 Translational            0.000              2.981            -21.219
 Rotational               0.000              2.981             -6.495
 Vibrational            101.544              0.000              0.000

                           ! Non-Optimized Parameters !
 Normal termination of Gaussian 16 at Sun Oct 13 23:21:36 2019.
