 Gaussian 16, Revision A.03,
 Gaussian 16:  ES64L-G16RevA.03 25-Dec-2016

 -------------------------------------------------------------------
 #P opt freq m062x/6-311++g(d,p) geom=connectivity temperature=0.001
 -------------------------------------------------------------------

 -------------------
 Title Card Required
 -------------------
 Symbolic Z-matrix:
 Charge =  0 Multiplicity = 1

 SCF Done:  E(RM062X) =  -233.602963350     A.U. after   12 cycles
 SCF Done:  E(RM062X) =  -233.615480952     A.U. after   10 cycles
 SCF Done:  E(RM062X) =  -233.618633873     A.U. after   10 cycles
 SCF Done:  E(RM062X) =  -233.619184985     A.U. after   10 cycles
 SCF Done:  E(RM062X) =  -233.619281248     A.U. after   10 cycles
 SCF Done:  E(RM062X) =  -233.619327707     A.U. after    9 cycles
 SCF Done:  E(RM062X) =  -233.619369004     A.U. after   10 cycles
 SCF Done:  E(RM062X) =  -233.619373997     A.U. after    9 cycles
 SCF Done:  E(RM062X) =  -233.619374617     A.U. after    8 cycles
 SCF Done:  E(RM062X) =  -233.619374703     A.U. after    7 cycles
 Optimization completed.
    -- Stationary point found.
 Normal termination of Gaussian 16 at Sun Oct 13 21:37:59 2019.

 ----------------------------------------------------------------------
 #P Geom=AllCheck Guess=TCheck SCRF=Check GenChk RM062X/6-311++G(d,p) F
 req
 ----------------------------------------------------------------------

 Structure from the checkpoint file:  "20.chk"
 -------------------
 Title Card Required
 -------------------
 Charge =  0 Multiplicity = 1

                         Standard orientation:
 ---------------------------------------------------------------------
 Center     Atomic      Atomic             Coordinates (Angstroms)
 Number     Number       Type             X           Y           Z
 ---------------------------------------------------------------------
      1          6           0       -2.503366   -0.295903   -0.000052
      2          6           0       -1.220611    0.532084    0.000070
      3          6           0        0.031448   -0.341533    0.000040
      4          6           0        1.308154    0.475655   -0.000044
      5          8           0        2.406042   -0.424013    0.000044
      6          1           0       -3.390883    0.339588    0.000016
      7          1           0       -2.549867   -0.939015   -0.882431
      8          1           0       -2.549890   -0.939243    0.882156
      9          1           0       -1.207580    1.188014   -0.877146
     10          1           0       -1.207627    1.187857    0.877399
     11          1           0        0.035054   -0.993605    0.879387
     12          1           0        0.035003   -0.993609   -0.879308
     13          1           0        1.335175    1.120928   -0.887955
     14          1           0        1.335235    1.121145    0.887705
     15          1           0        3.223300    0.078231   -0.000257
 ---------------------------------------------------------------------

 SCF Done:  E(RM062X) =  -233.619374703     A.U. after    1 cycles

 The electronic state is 1-A.
 Alpha  occ. eigenvalues --  -19.61950 -10.58107 -10.53291 -10.52685 -10.52309
 Alpha  occ. eigenvalues --   -1.14398  -0.89636  -0.81517  -0.71339  -0.66459
 Alpha  occ. eigenvalues --   -0.58759  -0.55842  -0.50618  -0.50195  -0.46959
 Alpha  occ. eigenvalues --   -0.43261  -0.42561  -0.39664  -0.38812  -0.38466
 Alpha  occ. eigenvalues --   -0.34904
 Alpha virt. eigenvalues --   -0.00266   0.00661   0.01779   0.01840   0.03081
 Alpha virt. eigenvalues --    0.04505   0.04515   0.05255   0.06587   0.07290
 Alpha virt. eigenvalues --    0.08144   0.08853   0.11374   0.11738   0.12005

 Mulliken charges:
               1
     1  C   -0.582830
     2  C   -0.136473
     3  C   -0.233938
     4  C   -0.405226
     5  O   -0.271415
     6  H    0.158620
     7  H    0.149362
     8  H    0.149360
     9  H    0.142918
    10  H    0.142931
    11  H    0.160855
    12  H    0.160842
    13  H    0.154974
    14  H    0.154971
    15  H    0.255049
 Sum of Mulliken charges =  -0.00000

 Dipole moment (field-independent basis, Debye):
    X=             -0.0062    Y=              1.7064    Z=             -0.0006  Tot=              1.7064
 Quadrupole moment (field-independent basis, Debye-Ang):
   XX=            -30.7988   YY=            -34.8219   ZZ=            -33.5136
   XY=              4.3663   XZ=             -0.0021   YZ=             -0.0001

  Exact polarizability:  62.829   0.618  51.268  -0.000  -0.000  47.615
 Approx polarizability:  60.398  -0.351  60.578  -0.000  -0.000  58.272

                      1                      2                      3
                      A                      A                      A
 Frequencies --     98.3574               118.1748               186.9539
 Red. masses --      1.7429                 2.6688                 3.0494
 Frc consts  --      0.0099                 0.0220                 0.0628
 IR Inten    --     12.7195                 0.9515                 2.9227

                      4                      5                      6
                      A                      A                      A
 Frequencies --    217.1513               248.3836               399.8857
 Red. masses --      1.0934                 1.1276                 3.1402
 Frc consts  --      0.0304                 0.0410                 0.2959
 IR Inten    --    119.7810                 0.6281                 0.0996

                      7                      8                      9
                      A                      A                      A
 Frequencies --    445.9178               746.4323               818.7158
 Red. masses --      3.6142                 1.0719                 1.1340
 Frc consts  --      0.4234                 0.3519                 0.4478
 IR Inten    --     14.1616                 2.1234                 1.0389

                     10                     11                     12
                      A                      A                      A
 Frequencies --    917.5349               958.7253              1022.5434
 Red. masses --      1.6928                 1.1466                 3.0934
 Frc consts  --      0.8397                 0.6210                 1.9057
 IR Inten    --     13.7312                 0.0162                 0.7050

                     13                     14                     15
                      A                      A                      A
 Frequencies --   1080.7164              1102.7675              1129.0867
 Red. masses --      1.9820                 3.1784                 2.2759
 Frc consts  --      1.3639                 2.2773                 1.7094
 IR Inten    --     11.9512                67.7390                17.8435

                     16                     17                     18
                      A                      A                      A
 Frequencies --   1190.8011              1245.9318              1255.3472
 Red. masses --      1.6713                 1.3428                 1.2830
 Frc consts  --      1.3963                 1.2281                 1.1912
 IR Inten    --      1.8243                42.4811                 0.2709

                     19                     20                     21
                      A                      A                      A
 Frequencies --   1310.7731              1325.3001              1326.7624
 Red. masses --      1.3540                 1.0852                 1.1082
 Frc consts  --      1.3706                 1.1230                 1.1494
 IR Inten    --     21.1829                 0.6989                 0.1748

                     22                     23                     24
                      A                      A                      A
 Frequencies --   1396.1753              1416.7419              1461.8140
 Red. masses --      1.5219                 1.3048                 1.5096
 Frc consts  --      1.7479                 1.5431                 1.9006
 IR Inten    --      2.0850                 4.3765                 6.9442

                     25                     26                     27
                      A                      A                      A
 Frequencies --   1493.7597              1499.8850              1504.7912
 Red. masses --      1.0726                 1.0778                 1.0384
 Frc consts  --      1.4101                 1.4285                 1.3854
 IR Inten    --      0.0872                 1.4871                 9.3833

                     28                     29                     30
                      A                      A                      A
 Frequencies --   1513.0878              1532.3224              3013.8361
 Red. masses --      1.0846                 1.0888                 1.0553
 Frc consts  --      1.4631                 1.5063                 5.6478
 IR Inten    --      7.7126                 3.8225                45.0127

                     31                     32                     33
                      A                      A                      A
 Frequencies --   3044.9789              3047.3240              3057.7516
 Red. masses --      1.0597                 1.1070                 1.0404
 Frc consts  --      5.7890                 6.0570                 5.7312
 IR Inten    --     15.5008                32.4587                14.1308

                     34                     35                     36
                      A                      A                      A
 Frequencies --   3061.1365              3075.6873              3108.2293
 Red. masses --      1.0543                 1.1029                 1.1061
 Frc consts  --      5.8209                 6.1469                 6.2960
 IR Inten    --     51.9020                 3.1871                30.1496

                     37                     38                     39
                      A                      A                      A
 Frequencies --   3129.4258              3135.5164              3915.5190
 Red. masses --      1.1031                 1.1021                 1.0669
 Frc consts  --      6.3649                 6.3838                 9.6370
 IR Inten    --     47.9353                28.7650                43.9288

 - Thermochemistry -
 -------------------
 Temperature     0.001 Kelvin.  Pressure   1.00000 Atm.
 Atom     1 has atomic number  6 and mass  12.00000

 Molecular mass:    74.07317 amu.
 Principal axes and moments of inertia in atomic units:
                           1         2         3
     Eigenvalues --    96.02960 906.80926 958.07378
           X            0.99986   0.01688  -0.00000
           Y           -0.01688   0.99986   0.00000
           Z            0.00000  -0.00000   1.00000
 This molecule is an asymmetric top.
 Rotational symmetry number  1.
 Rotational temperatures (Kelvin)      0.90195     0.09552     0.09040
 Rotational constants (GHZ):          18.79359     1.99021     1.88372
 Zero-point vibrational energy     362194.8 (Joules/Mol)
                                   86.56664 (Kcal/Mol)
 Vibrational temperatures:    141.51   170.03   268.98   312.43   357.37
          (Kelvin)            575.35   641.58  1073.95  1177.95  1320.13
                             1379.39  1471.21  1554.91  1586.64  1624.50
                             1713.30  1792.62  1806.16  1885.91  1906.81
                             1908.92  2008.78  2038.38  2103.22  2149.19
                             2158.00  2165.06  2177.00  2204.67  4336.24
                             4381.05  4384.42  4399.42  4404.29  4425.23
                             4472.05  4502.55  4511.31  5633.56

 Zero-point correction=                           0.137953 (Hartree/Particle)
 Thermal correction to Energy=                    0.137953
 Thermal correction to Enthalpy=                  0.137953
 Thermal correction to Gibbs Free Energy=         0.137953
 Sum of electronic and zero-point Energies=           -233.481422
 Sum of electronic and thermal Energies=              -233.481422
 Sum of electronic and thermal Enthalpies=            -233.481422
 Sum of electronic and thermal Free Energies=         -233.481422

                     E (Thermal)             CV                S
                      KCal/Mol        Cal/Mol-Kelvin    Cal/Mol-Kelvin
 Total                   86.567              5.962            -35.449
 Electronic               0.000              0.000              0.000
 Translational            0.000              2.981            -23.800
 Rotational               0.000              2.981            -11.648
 Vibrational             86.567              0.000              0.000

 Optimization completed.
    -- Stationary point found.
 Normal termination of Gaussian 16 at Sun Oct 13 21:38:39 2019.
