 Gaussian 16, Revision A.03,
 Gaussian 16:  ES64L-G16RevA.03 25-Dec-2016

 -------------------------------------------------------------------
 #P opt freq m062x/6-311++g(d,p) geom=connectivity temperature=0.001
 -------------------------------------------------------------------

 -------------------
 Title Card Required
 -------------------
 Symbolic Z-matrix:
 Charge =  1 Multiplicity = 1

 SCF Done:  E(RM062X) =  -233.906494714     A.U. after   11 cycles
 SCF Done:  E(RM062X) =  -233.923035075     A.U. after   10 cycles
 SCF Done:  E(RM062X) =  -233.927375580     A.U. after   10 cycles
 SCF Done:  E(RM062X) =  -233.927954745     A.U. after    9 cycles
 SCF Done:  E(RM062X) =  -233.928045374     A.U. after    9 cycles
 SCF Done:  E(RM062X) =  -233.928065586     A.U. after    8 cycles
 SCF Done:  E(RM062X) =  -233.928085132     A.U. after    8 cycles
 SCF Done:  E(RM062X) =  -233.928098745     A.U. after    8 cycles
 SCF Done:  E(RM062X) =  -233.928108899     A.U. after    9 cycles
 SCF Done:  E(RM062X) =  -233.928112192     A.U. after    8 cycles
 SCF Done:  E(RM062X) =  -233.928112950     A.U. after    7 cycles
 Optimization completed.
    -- Stationary point found.
 Normal termination of Gaussian 16 at Sun Oct 13 21:38:14 2019.

 ----------------------------------------------------------------------
 #P Geom=AllCheck Guess=TCheck SCRF=Check GenChk RM062X/6-311++G(d,p) F
 req
 ----------------------------------------------------------------------

 Structure from the checkpoint file:  "20_p.chk"
 -------------------
 Title Card Required
 -------------------
 Charge =  1 Multiplicity = 1

                         Standard orientation:
 ---------------------------------------------------------------------
 Center     Atomic      Atomic             Coordinates (Angstroms)
 Number     Number       Type             X           Y           Z
 ---------------------------------------------------------------------
      1          6           0       -2.558696   -0.332399   -0.011204
      2          6           0       -1.304129    0.536886    0.023365
      3          6           0       -0.031948   -0.327394   -0.022020
      4          6           0        1.177137    0.561660    0.021855
      5          8           0        2.420907   -0.339954   -0.077208
      6          1           0       -3.452734    0.289893    0.016581
      7          1           0       -2.595393   -0.932567   -0.922358
      8          1           0       -2.593143   -1.007602    0.846102
      9          1           0       -1.303688    1.223448   -0.827906
     10          1           0       -1.299089    1.147516    0.930848
     11          1           0       -0.032817   -1.008173    0.837208
     12          1           0       -0.021645   -0.922934   -0.938876
     13          1           0        1.285257    1.202155   -0.850799
     14          1           0        1.291114    1.117428    0.951498
     15          1           0        3.281764    0.106570    0.010562
     16          1           0        2.378933   -1.128627    0.492826
 ---------------------------------------------------------------------

 SCF Done:  E(RM062X) =  -233.928112950     A.U. after    1 cycles

 The electronic state is 1-A.
 Alpha  occ. eigenvalues --  -19.97619 -10.82512 -10.72114 -10.68898 -10.65091
 Alpha  occ. eigenvalues --   -1.49106  -1.10062  -1.00873  -0.95874  -0.90899
 Alpha  occ. eigenvalues --   -0.83482  -0.81698  -0.78133  -0.71405  -0.67239
 Alpha  occ. eigenvalues --   -0.65460  -0.62210  -0.59555  -0.55925  -0.54568
 Alpha  occ. eigenvalues --   -0.53852
 Alpha virt. eigenvalues --   -0.19499  -0.13743  -0.12835  -0.11240  -0.09342
 Alpha virt. eigenvalues --   -0.08981  -0.08169  -0.07413  -0.06849  -0.06383
 Alpha virt. eigenvalues --   -0.04855  -0.03996  -0.03146  -0.02413  -0.02269

 Mulliken charges:
               1
     1  C   -0.551837
     2  C   -0.214451
     3  C   -0.206285
     4  C   -0.455732
     5  O   -0.109658
     6  H    0.199596
     7  H    0.165948
     8  H    0.162272
     9  H    0.180767
    10  H    0.175009
    11  H    0.160852
    12  H    0.222115
    13  H    0.260518
    14  H    0.257738
    15  H    0.378129
    16  H    0.375019
 Sum of Mulliken charges =   1.00000

 Dipole moment (field-independent basis, Debye):
    X=              7.8702    Y=             -0.1923    Z=              1.1058  Tot=              7.9499
 Quadrupole moment (field-independent basis, Debye-Ang):
   XX=             -2.0803   YY=            -27.7435   ZZ=            -30.2712
   XY=             -1.4844   XZ=              2.9948   YZ=             -1.5743

  Exact polarizability:  62.543   0.396  47.863   0.405  -0.509  43.955
 Approx polarizability:  60.825  -0.359  56.993   0.165  -0.853  54.365

                      1                      2                      3
                      A                      A                      A
 Frequencies --     99.6822               115.0626               166.5502
 Red. masses --      1.7307                 2.4321                 2.1099
 Frc consts  --      0.0101                 0.0190                 0.0345
 IR Inten    --      3.9693                 3.8366                15.1056

                      4                      5                      6
                      A                      A                      A
 Frequencies --    202.1848               250.5501               383.2407
 Red. masses --      1.2622                 1.1262                 3.7527
 Frc consts  --      0.0304                 0.0417                 0.3247
 IR Inten    --     36.7955                 0.0940                 1.2538

                      7                      8                      9
                      A                      A                      A
 Frequencies --    401.3722               658.0020               752.2508
 Red. masses --      2.6444                 1.1660                 4.9551
 Frc consts  --      0.2510                 0.2975                 1.6521
 IR Inten    --      2.8755               260.4394               106.0704

                     10                     11                     12
                      A                      A                      A
 Frequencies --    755.8857               816.3358               901.5134
 Red. masses --      1.1013                 1.1285                 1.6117
 Frc consts  --      0.3707                 0.4431                 0.7717
 IR Inten    --      8.1080                 2.2202                 2.7842

                     13                     14                     15
                      A                      A                      A
 Frequencies --    951.2847               975.1258              1059.0782
 Red. masses --      1.3050                 1.3199                 2.5613
 Frc consts  --      0.6958                 0.7394                 1.6926
 IR Inten    --      1.0334                 0.7656                12.3018

                     16                     17                     18
                      A                      A                      A
 Frequencies --   1070.5509              1166.2851              1197.0743
 Red. masses --      2.1326                 1.9776                 1.7931
 Frc consts  --      1.4400                 1.5849                 1.5139
 IR Inten    --     21.1375                 7.3635                 4.5083

                     19                     20                     21
                      A                      A                      A
 Frequencies --   1255.6789              1301.2445              1318.6337
 Red. masses --      1.2455                 1.3001                 1.1493
 Frc consts  --      1.1570                 1.2971                 1.1775
 IR Inten    --      2.8614                 1.8854                 0.6121

                     22                     23                     24
                      A                      A                      A
 Frequencies --   1339.8273              1385.5158              1415.8641
 Red. masses --      1.0706                 1.4341                 1.2589
 Frc consts  --      1.1324                 1.6220                 1.4870
 IR Inten    --      0.7317                 7.6612                19.9754

                     25                     26                     27
                      A                      A                      A
 Frequencies --   1427.1632              1494.9194              1501.0229
 Red. masses --      1.2365                 1.0601                 1.0948
 Frc consts  --      1.4839                 1.3958                 1.4534
 IR Inten    --      2.5363                 2.4918                 0.9034

                     28                     29                     30
                      A                      A                      A
 Frequencies --   1505.9257              1506.5800              1516.0550
 Red. masses --      1.0983                 1.0419                 1.0986
 Frc consts  --      1.4675                 1.3933                 1.4878
 IR Inten    --      6.0112                13.7619                16.0687

                     31                     32                     33
                      A                      A                      A
 Frequencies --   1657.0664              3049.4411              3066.8263
 Red. masses --      1.0922                 1.0621                 1.0572
 Frc consts  --      1.7670                 5.8191                 5.8586
 IR Inten    --    169.1274                 4.9612                 7.2472

                     34                     35                     36
                      A                      A                      A
 Frequencies --   3073.9989              3101.3722              3119.5722
 Red. masses --      1.0394                 1.1030                 1.1016
 Frc consts  --      5.7869                 6.2508                 6.3164
 IR Inten    --     16.2107                 1.0751                 3.3591

                     37                     38                     39
                      A                      A                      A
 Frequencies --   3127.2725              3147.4933              3162.1097
 Red. masses --      1.0610                 1.1043                 1.1021
 Frc consts  --      6.1136                 6.4454                 6.4929
 IR Inten    --      1.7943                17.3603                 5.4345

                     40                     41                     42
                      A                      A                      A
 Frequencies --   3207.0268              3702.0837              3792.2988
 Red. masses --      1.1162                 1.0423                 1.0902
 Frc consts  --      6.7638                 8.4169                 9.2379
 IR Inten    --      0.1392               216.6267               309.7306

 - Thermochemistry -
 -------------------
 Temperature     0.001 Kelvin.  Pressure   1.00000 Atm.
 Atom     1 has atomic number  6 and mass  12.00000

 Molecular mass:    75.08099 amu.
 Principal axes and moments of inertia in atomic units:
                           1         2         3
     Eigenvalues --   104.04548 945.860941001.92401
           X            0.99996   0.00707   0.00506
           Y           -0.00693   0.99963  -0.02624
           Z           -0.00524   0.02621   0.99964
 This molecule is an asymmetric top.
 Rotational symmetry number  1.
 Rotational temperatures (Kelvin)      0.83246     0.09157     0.08645
 Rotational constants (GHZ):          17.34570     1.90804     1.80128
 Zero-point vibrational energy     395348.0 (Joules/Mol)
                                   94.49044 (Kcal/Mol)
 Vibrational temperatures:    143.42   165.55   239.63   290.90   360.49
          (Kelvin)            551.40   577.49   946.72  1082.32  1087.55
                             1174.53  1297.08  1368.69  1402.99  1523.78
                             1540.28  1678.02  1722.32  1806.64  1872.20
                             1897.22  1927.71  1993.45  2037.11  2053.37
                             2150.86  2159.64  2166.69  2167.63  2181.27
                             2384.15  4387.47  4412.48  4422.80  4462.18
                             4488.37  4499.45  4528.54  4549.57  4614.20
                             5326.47  5456.27

 Zero-point correction=                           0.150580 (Hartree/Particle)
 Thermal correction to Energy=                    0.150580
 Thermal correction to Enthalpy=                  0.150580
 Thermal correction to Gibbs Free Energy=         0.150580
 Sum of electronic and zero-point Energies=           -233.777533
 Sum of electronic and thermal Energies=              -233.777533
 Sum of electronic and thermal Enthalpies=            -233.777533
 Sum of electronic and thermal Free Energies=         -233.777533

                     E (Thermal)             CV                S
                      KCal/Mol        Cal/Mol-Kelvin    Cal/Mol-Kelvin
 Total                   94.490              5.962            -35.242
 Electronic               0.000              0.000              0.000
 Translational            0.000              2.981            -23.760
 Rotational               0.000              2.981            -11.482
 Vibrational             94.490              0.000              0.000

 Optimization completed.
    -- Stationary point found.
 Normal termination of Gaussian 16 at Sun Oct 13 21:39:00 2019.
