 Gaussian 16, Revision A.03,
 Gaussian 16:  ES64L-G16RevA.03 25-Dec-2016

 -------------------------------------------------------------------
 #p opt freq m062x/6-311++g(d,p) geom=connectivity temperature=0.001
 -------------------------------------------------------------------

 -------------------
 Title Card Required
 -------------------
 Symbolic Z-matrix:
 Charge =  0 Multiplicity = 1

 SCF Done:  E(RM062X) =  -307.420551729     A.U. after   14 cycles
 SCF Done:  E(RM062X) =  -307.422942056     A.U. after   12 cycles
 SCF Done:  E(RM062X) =  -307.423013023     A.U. after   11 cycles
 SCF Done:  E(RM062X) =  -307.423019827     A.U. after   10 cycles
 Optimization completed.
    -- Stationary point found.
 Normal termination of Gaussian 16 at Mon Oct 14 10:37:05 2019.

 ----------------------------------------------------------------------
 #P Geom=AllCheck Guess=TCheck SCRF=Check GenChk RM062X/6-311++G(d,p) F
 req
 ----------------------------------------------------------------------

 Structure from the checkpoint file:  "21.chk"
 -------------------
 Title Card Required
 -------------------
 Charge =  0 Multiplicity = 1

                         Standard orientation:
 ---------------------------------------------------------------------
 Center     Atomic      Atomic             Coordinates (Angstroms)
 Number     Number       Type             X           Y           Z
 ---------------------------------------------------------------------
      1          8           0       -2.296003   -0.110256   -0.000253
      2          6           0       -0.936184   -0.024190   -0.000118
      3          6           0       -0.221101   -1.219162    0.000060
      4          6           0        1.166635   -1.186218    0.000009
      5          6           0        1.850371    0.027394   -0.000002
      6          6           0        1.127518    1.214751    0.000014
      7          6           0       -0.263402    1.195199   -0.000095
      8          1           0       -2.677794    0.771279    0.002075
      9          1           0       -0.767170   -2.154237    0.000426
     10          1           0        1.718539   -2.118884    0.000112
     11          1           0        2.932740    0.046343    0.000021
     12          1           0        1.644540    2.167081    0.000105
     13          1           0       -0.825857    2.123824    0.000080
 ---------------------------------------------------------------------

 SCF Done:  E(RM062X) =  -307.423019827     A.U. after    1 cycles

 The electronic state is 1-A.
 Alpha  occ. eigenvalues --  -19.65716 -10.60979 -10.55034 -10.54818 -10.54759
 Alpha  occ. eigenvalues --  -10.54127 -10.53969  -1.19281  -0.96220  -0.85180
 Alpha  occ. eigenvalues --   -0.84015  -0.71567  -0.69175  -0.62864  -0.57912
 Alpha  occ. eigenvalues --   -0.54595  -0.51159  -0.49773  -0.49569  -0.46830
 Alpha  occ. eigenvalues --   -0.42716  -0.41542  -0.40502  -0.31403  -0.28423
 Alpha virt. eigenvalues --   -0.00529   0.00636   0.01390   0.01430   0.02903
 Alpha virt. eigenvalues --    0.03001   0.03601   0.05814   0.07139   0.07436
 Alpha virt. eigenvalues --    0.09437   0.09749   0.09860   0.11147   0.12493

 Mulliken charges:
               1
     1  O   -0.233699
     2  C   -0.526231
     3  C    0.054170
     4  C   -0.208209
     5  C   -0.310892
     6  C   -0.159658
     7  C    0.129096
     8  H    0.265119
     9  H    0.234152
    10  H    0.203162
    11  H    0.188238
    12  H    0.204799
    13  H    0.159951
 Sum of Mulliken charges =  -0.00000

 Dipole moment (field-independent basis, Debye):
    X=              0.1411    Y=              1.4013    Z=              0.0044  Tot=              1.4084
 Quadrupole moment (field-independent basis, Debye-Ang):
   XX=            -37.8387   YY=            -35.5405   ZZ=            -45.7539
   XY=             -4.5964   XZ=             -0.0125   YZ=              0.0035

  Exact polarizability:  86.971  -1.124  79.124  -0.002   0.002  41.971
 Approx polarizability: 110.677  -0.723 103.768  -0.000   0.003  53.453

                      1                      2                      3
                      A                      A                      A
 Frequencies --    230.0726               318.7980               411.6981
 Red. masses --      4.1423                 1.1223                 3.9660
 Frc consts  --      0.1292                 0.0672                 0.3961
 IR Inten    --      1.6146               115.0807                10.4682

                      4                      5                      6
                      A                      A                      A
 Frequencies --    417.1913               512.5123               536.5150
 Red. masses --      2.9736                 2.7900                 7.1934
 Frc consts  --      0.3049                 0.4318                 1.2200
 IR Inten    --      1.0741                14.0902                 1.5822

                      7                      8                      9
                      A                      A                      A
 Frequencies --    630.3270               671.1536               758.6508
 Red. masses --      6.4105                 3.4280                 1.4452
 Frc consts  --      1.5006                 0.9098                 0.4901
 IR Inten    --      0.3696                 8.5923                93.3159

                     10                     11                     12
                      A                      A                      A
 Frequencies --    834.7068               839.1158               891.7386
 Red. masses --      1.2513                 5.7038                 1.3307
 Frc consts  --      0.5137                 2.3663                 0.6234
 IR Inten    --      0.0637                20.6903                 4.1518

                     13                     14                     15
                      A                      A                      A
 Frequencies --    974.9164               992.9947              1014.7157
 Red. masses --      1.3136                 1.2618                 5.6403
 Frc consts  --      0.7356                 0.7331                 3.4217
 IR Inten    --      0.1698                 0.0070                 0.4875

                     16                     17                     18
                      A                      A                      A
 Frequencies --   1055.4660              1102.6161              1171.4157
 Red. masses --      2.0011                 1.4701                 1.1936
 Frc consts  --      1.3135                 1.0530                 0.9650
 IR Inten    --      6.3455                12.1632                17.4269

                     19                     20                     21
                      A                      A                      A
 Frequencies --   1190.5055              1202.3991              1306.3291
 Red. masses --      1.1180                 1.2495                 3.5472
 Frc consts  --      0.9336                 1.0644                 3.5665
 IR Inten    --      1.8339               119.3149                97.0656

                     22                     23                     24
                      A                      A                      A
 Frequencies --   1342.7443              1364.9508              1512.4587
 Red. masses --      3.8103                 1.3317                 2.4124
 Frc consts  --      4.0476                 1.4618                 3.2514
 IR Inten    --     10.5725                35.1977                23.5231

                     25                     26                     27
                      A                      A                      A
 Frequencies --   1544.2850              1671.8193              1682.2684
 Red. masses --      2.6156                 6.2455                 6.1853
 Frc consts  --      3.6751                10.2848                10.3134
 IR Inten    --     77.6129                43.8005                53.4415

                     28                     29                     30
                      A                      A                      A
 Frequencies --   3187.6192              3206.2726              3214.5547
 Red. masses --      1.0892                 1.0872                 1.0923
 Frc consts  --      6.5207                 6.5849                 6.6499
 IR Inten    --      8.9580                 0.2030                 9.3564

                     31                     32                     33
                      A                      A                      A
 Frequencies --   3228.1533              3234.0082              3905.0400
 Red. masses --      1.0943                 1.0981                 1.0663
 Frc consts  --      6.7186                 6.7664                 9.5805
 IR Inten    --      7.3156                 2.4423                77.9867

 - Thermochemistry -
 -------------------
 Temperature     0.001 Kelvin.  Pressure   1.00000 Atm.
 Atom     1 has atomic number  8 and mass  15.99491

 Molecular mass:    94.04186 amu.
 Principal axes and moments of inertia in atomic units:
                           1         2         3
     Eigenvalues --   317.16401 684.955931002.11990
           X            0.99980  -0.02013  -0.00003
           Y            0.02013   0.99980   0.00001
           Z            0.00003  -0.00001   1.00000
 This molecule is an asymmetric top.
 Rotational symmetry number  1.
 Rotational temperatures (Kelvin)      0.27309     0.12645     0.08643
 Rotational constants (GHZ):           5.69025     2.63483     1.80092
 Zero-point vibrational energy     276086.2 (Joules/Mol)
                                   65.98619 (Kcal/Mol)
 Vibrational temperatures:    331.02   458.68   592.34   600.25   737.39
          (Kelvin)            771.93   906.90   965.64  1091.53  1200.96
                             1207.30  1283.01  1402.69  1428.70  1459.95
                             1518.58  1586.42  1685.41  1712.87  1729.98
                             1879.52  1931.91  1963.86  2176.09  2221.88
                             2405.38  2420.41  4586.27  4613.11  4625.03
                             4644.59  4653.02  5618.48

 Zero-point correction=                           0.105156 (Hartree/Particle)
 Thermal correction to Energy=                    0.105156
 Thermal correction to Enthalpy=                  0.105156
 Thermal correction to Gibbs Free Energy=         0.105156
 Sum of electronic and zero-point Energies=           -307.317864
 Sum of electronic and thermal Energies=              -307.317864
 Sum of electronic and thermal Enthalpies=            -307.317864
 Sum of electronic and thermal Free Energies=         -307.317864

                     E (Thermal)             CV                S
                      KCal/Mol        Cal/Mol-Kelvin    Cal/Mol-Kelvin
 Total                   65.986              5.962            -33.784
 Electronic               0.000              0.000              0.000
 Translational            0.000              2.981            -23.089
 Rotational               0.000              2.981            -10.695
 Vibrational             65.986              0.000              0.000

                           ! Non-Optimized Parameters !
 Normal termination of Gaussian 16 at Mon Oct 14 10:37:50 2019.
