 Gaussian 16, Revision A.03,
 Gaussian 16:  ES64L-G16RevA.03 25-Dec-2016

 -------------------------------------------------------------------
 #p opt freq m062x/6-311++g(d,p) geom=connectivity temperature=0.001
 -------------------------------------------------------------------

 -------------------
 Title Card Required
 -------------------
 Symbolic Z-matrix:
 Charge =  1 Multiplicity = 1

 SCF Done:  E(RM062X) =  -307.718122906     A.U. after   13 cycles
 SCF Done:  E(RM062X) =  -307.737219639     A.U. after   12 cycles
 SCF Done:  E(RM062X) =  -307.738360766     A.U. after   12 cycles
 SCF Done:  E(RM062X) =  -307.738391457     A.U. after   10 cycles
 SCF Done:  E(RM062X) =  -307.738393175     A.U. after    9 cycles
 Optimization completed.
    -- Stationary point found.
 Normal termination of Gaussian 16 at Thu Jan  2 19:20:58 2020.

 ----------------------------------------------------------------------
 #P Geom=AllCheck Guess=TCheck SCRF=Check GenChk RM062X/6-311++G(d,p) F
 req
 ----------------------------------------------------------------------

 Structure from the checkpoint file:  "21_p_b.chk"
 -------------------
 Title Card Required
 -------------------
 Charge =  1 Multiplicity = 1

                         Standard orientation:
 ---------------------------------------------------------------------
 Center     Atomic      Atomic             Coordinates (Angstroms)
 Number     Number       Type             X           Y           Z
 ---------------------------------------------------------------------
      1          8           0       -2.273971   -0.110136    0.000233
      2          6           0       -0.980320   -0.020754    0.000545
      3          6           0       -0.271953   -1.260006   -0.000391
      4          6           0        1.076868   -1.238159   -0.000095
      5          6           0        1.842661    0.023466    0.000284
      6          6           0        1.040307    1.261015   -0.000023
      7          6           0       -0.309245    1.241459   -0.000365
      8          1           0       -2.727604    0.746267   -0.000171
      9          1           0       -0.848875   -2.176175   -0.000934
     10          1           0        1.635023   -2.168448   -0.000018
     11          1           0        2.533505    0.036390    0.859351
     12          1           0        1.568761    2.208656   -0.000001
     13          1           0       -0.892648    2.155801   -0.001131
     14          1           0        2.533699    0.036463   -0.858692
 ---------------------------------------------------------------------

 SCF Done:  E(RM062X) =  -307.738393175     A.U. after    1 cycles

 The electronic state is 1-A.
 Alpha  occ. eigenvalues --  -19.88980 -10.86302 -10.77716 -10.77105 -10.75365
 Alpha  occ. eigenvalues --  -10.74996 -10.74445  -1.43800  -1.17121  -1.06943
 Alpha  occ. eigenvalues --   -1.05424  -0.94312  -0.90676  -0.84495  -0.78362
 Alpha  occ. eigenvalues --   -0.76347  -0.72994  -0.70648  -0.70473  -0.69634
 Alpha  occ. eigenvalues --   -0.67185  -0.63527  -0.59877  -0.55031  -0.53015
 Alpha virt. eigenvalues --   -0.25562  -0.17171  -0.13938  -0.12429  -0.10481
 Alpha virt. eigenvalues --   -0.09862  -0.09096  -0.08733  -0.07717  -0.06620
 Alpha virt. eigenvalues --   -0.04815  -0.04768  -0.04349  -0.03900  -0.02916

 Mulliken charges:
               1
     1  O   -0.077008
     2  C   -0.157945
     3  C   -0.201397
     4  C    0.432699
     5  C   -1.365470
     6  C    0.467711
     7  C   -0.109760
     8  H    0.324794
     9  H    0.301887
    10  H    0.311523
    11  H    0.262945
    12  H    0.310991
    13  H    0.236027
    14  H    0.263002
 Sum of Mulliken charges =   1.00000

 Dipole moment (field-independent basis, Debye):
    X=              1.1243    Y=              1.5677    Z=             -0.0006  Tot=              1.9292
 Quadrupole moment (field-independent basis, Debye-Ang):
   XX=            -19.7640   YY=            -27.0005   ZZ=            -40.6668
   XY=             -4.6667   XZ=              0.0034   YZ=             -0.0009

  Exact polarizability:  92.608  -1.289  68.053   0.001  -0.000  38.057
 Approx polarizability: 124.307  -0.565  81.293  -0.001  -0.000  50.218

                      1                      2                      3
                      A                      A                      A
 Frequencies --    147.9976               293.8368               340.8956
 Red. masses --      2.7230                 1.7642                 2.7598
 Frc consts  --      0.0351                 0.0897                 0.1890
 IR Inten    --      3.3166                 1.7836                 4.0491

                      4                      5                      6
                      A                      A                      A
 Frequencies --    434.4456               515.0390               563.5136
 Red. masses --      3.8427                 6.6414                 1.6549
 Frc consts  --      0.4273                 1.0380                 0.3096
 IR Inten    --     12.2701                 1.3530                45.7431

                      7                      8                      9
                      A                      A                      A
 Frequencies --    593.5596               615.6388               796.0437
 Red. masses --      6.5745                 1.1379                 1.2323
 Frc consts  --      1.3647                 0.2541                 0.4601
 IR Inten    --      4.9112               102.8235                15.5920

                     10                     11                     12
                      A                      A                      A
 Frequencies --    809.3689               828.9076               892.4455
 Red. masses --      3.3135                 5.9867                 1.5279
 Frc consts  --      1.2789                 2.4235                 0.7170
 IR Inten    --     25.6450                 0.1227                45.8582

                     13                     14                     15
                      A                      A                      A
 Frequencies --    906.6248               986.2200              1009.4698
 Red. masses --      3.5286                 3.2928                 1.2156
 Frc consts  --      1.7089                 1.8869                 0.7299
 IR Inten    --     29.2335                10.8475                 0.1922

                     16                     17                     18
                      A                      A                      A
 Frequencies --   1014.1512              1048.6562              1160.5080
 Red. masses --      1.5801                 1.3793                 1.1638
 Frc consts  --      0.9575                 0.8937                 0.9235
 IR Inten    --     12.6770                 0.6313                29.2884

                     19                     20                     21
                      A                      A                      A
 Frequencies --   1190.8211              1193.2281              1208.9838
 Red. masses --      1.1811                 1.1666                 1.1135
 Frc consts  --      0.9868                 0.9787                 0.9589
 IR Inten    --      0.0130               119.9275                66.5322

                     22                     23                     24
                      A                      A                      A
 Frequencies --   1340.4205              1357.2791              1410.2543
 Red. masses --      1.0695                 1.3194                 1.9381
 Frc consts  --      1.1321                 1.4321                 2.2710
 IR Inten    --    111.4706                29.8843                19.2430

                     25                     26                     27
                      A                      A                      A
 Frequencies --   1429.4190              1537.3783              1554.7574
 Red. masses --      2.2836                 5.1140                 4.5010
 Frc consts  --      2.7491                 7.1216                 6.4104
 IR Inten    --     34.2228               189.0642               345.7133

                     28                     29                     30
                      A                      A                      A
 Frequencies --   1619.9046              1703.2760              3012.6246
 Red. masses --      5.9329                 5.7232                 1.0647
 Frc consts  --      9.1726                 9.7827                 5.6934
 IR Inten    --     17.7336               246.6477                53.5070

                     31                     32                     33
                      A                      A                      A
 Frequencies --   3025.4020              3206.2070              3214.9226
 Red. masses --      1.0909                 1.0901                 1.0920
 Frc consts  --      5.8831                 6.6022                 6.6499
 IR Inten    --     17.0864                 1.4015                 4.1686

                     34                     35                     36
                      A                      A                      A
 Frequencies --   3219.9888              3240.0047              3799.7955
 Red. masses --      1.0995                 1.0982                 1.0668
 Frc consts  --      6.7164                 6.7922                 9.0756
 IR Inten    --      8.0824                12.5498               275.1766

 - Thermochemistry -
 -------------------
 Temperature     0.001 Kelvin.  Pressure   1.00000 Atm.
 Atom     1 has atomic number  8 and mass  15.99491

 Molecular mass:    95.04969 amu.
 Principal axes and moments of inertia in atomic units:
                           1         2         3
     Eigenvalues --   344.05861 687.225271020.66070
           X            0.99979  -0.02039   0.00002
           Y            0.02039   0.99979  -0.00001
           Z           -0.00002   0.00001   1.00000
 This molecule is an asymmetric top.
 Rotational symmetry number  1.
 Rotational temperatures (Kelvin)      0.25174     0.12603     0.08486
 Rotational constants (GHZ):           5.24545     2.62613     1.76821
 Zero-point vibrational energy     306375.5 (Joules/Mol)
                                   73.22551 (Kcal/Mol)
 Vibrational temperatures:    212.94   422.77   490.47   625.07   741.03
          (Kelvin)            810.77   854.00   885.77  1145.33  1164.50
                             1192.61  1284.03  1304.43  1418.95  1452.40
                             1459.14  1508.78  1669.71  1713.33  1716.79
                             1739.46  1928.57  1952.82  2029.04  2056.62
                             2211.94  2236.95  2330.68  2450.63  4334.49
                             4352.88  4613.02  4625.56  4632.85  4661.64
                             5467.06

 Zero-point correction=                           0.116692 (Hartree/Particle)
 Thermal correction to Energy=                    0.116692
 Thermal correction to Enthalpy=                  0.116692
 Thermal correction to Gibbs Free Energy=         0.116692
 Sum of electronic and zero-point Energies=           -307.621701
 Sum of electronic and thermal Energies=              -307.621701
 Sum of electronic and thermal Enthalpies=            -307.621701
 Sum of electronic and thermal Free Energies=         -307.621701

                     E (Thermal)             CV                S
                      KCal/Mol        Cal/Mol-Kelvin    Cal/Mol-Kelvin
 Total                   73.226              5.962            -33.650
 Electronic               0.000              0.000              0.000
 Translational            0.000              2.981            -23.057
 Rotational               0.000              2.981            -10.593
 Vibrational             73.226              0.000              0.000

 Optimization completed.
    -- Stationary point found.
 Normal termination of Gaussian 16 at Thu Jan  2 19:21:51 2020.
