 Gaussian 16, Revision A.03,
 Gaussian 16:  ES64L-G16RevA.03 25-Dec-2016

 -------------------------------------------------------------------
 #P opt freq m062x/6-311++g(d,p) geom=connectivity temperature=0.001
 -------------------------------------------------------------------

 -------------------
 Title Card Required
 -------------------
 Symbolic Z-matrix:
 Charge =  1 Multiplicity = 1

 SCF Done:  E(RM062X) =  -307.697407504     A.U. after   13 cycles
 SCF Done:  E(RM062X) =  -307.711049119     A.U. after   12 cycles
 SCF Done:  E(RM062X) =  -307.712886232     A.U. after   12 cycles
 SCF Done:  E(RM062X) =  -307.713207166     A.U. after   11 cycles
 SCF Done:  E(RM062X) =  -307.713352419     A.U. after   10 cycles
 SCF Done:  E(RM062X) =  -307.713645570     A.U. after   12 cycles
 SCF Done:  E(RM062X) =  -307.713963998     A.U. after   12 cycles
 SCF Done:  E(RM062X) =  -307.714264730     A.U. after   12 cycles
 SCF Done:  E(RM062X) =  -307.714910147     A.U. after   14 cycles
 SCF Done:  E(RM062X) =  -307.715005723     A.U. after   11 cycles
 SCF Done:  E(RM062X) =  -307.715026630     A.U. after    9 cycles
 SCF Done:  E(RM062X) =  -307.715031418     A.U. after    9 cycles
 SCF Done:  E(RM062X) =  -307.715033004     A.U. after    9 cycles
 Optimization completed.
    -- Stationary point found.
 Normal termination of Gaussian 16 at Sun Oct 13 21:39:03 2019.

 ----------------------------------------------------------------------
 #P Geom=AllCheck Guess=TCheck SCRF=Check GenChk RM062X/6-311++G(d,p) F
 req
 ----------------------------------------------------------------------

 Structure from the checkpoint file:  "21_p.chk"
 -------------------
 Title Card Required
 -------------------
 Charge =  1 Multiplicity = 1

                         Standard orientation:
 ---------------------------------------------------------------------
 Center     Atomic      Atomic             Coordinates (Angstroms)
 Number     Number       Type             X           Y           Z
 ---------------------------------------------------------------------
      1          8           0       -2.289571   -0.077163    0.000126
      2          6           0       -0.804551   -0.017615   -0.000048
      3          6           0       -0.202169    1.221046   -0.000028
      4          6           0        1.190113    1.222588   -0.000113
      5          6           0        1.892729    0.020185    0.000042
      6          6           0        1.223511   -1.199949    0.000144
      7          6           0       -0.169063   -1.236765   -0.000169
      8          1           0       -2.721389    0.255011    0.808256
      9          1           0       -0.770751    2.143801    0.000126
     10          1           0        1.718705    2.167125   -0.000166
     11          1           0        2.975344    0.035775    0.000108
     12          1           0        1.777997   -2.129539    0.000296
     13          1           0       -0.724986   -2.165579   -0.000283
     14          1           0       -2.721772    0.253765   -0.808316
 ---------------------------------------------------------------------

 SCF Done:  E(RM062X) =  -307.715033004     A.U. after    1 cycles

 The electronic state is 1-A.
 Alpha  occ. eigenvalues --  -19.98504 -10.81135 -10.73471 -10.73072 -10.71715
 Alpha  occ. eigenvalues --  -10.71535 -10.71016  -1.50220  -1.15432  -1.04084
 Alpha  occ. eigenvalues --   -1.03141  -0.95927  -0.92004  -0.88337  -0.82097
 Alpha  occ. eigenvalues --   -0.76848  -0.74512  -0.68999  -0.68210  -0.66820
 Alpha  occ. eigenvalues --   -0.62714  -0.59498  -0.58492  -0.49257  -0.48577
 Alpha virt. eigenvalues --   -0.19214  -0.16160  -0.15315  -0.12562  -0.11457
 Alpha virt. eigenvalues --   -0.10647  -0.08636  -0.07846  -0.07347  -0.05116
 Alpha virt. eigenvalues --   -0.05046  -0.04148  -0.03540  -0.03272  -0.02680

 Mulliken charges:
               1
     1  O   -0.182830
     2  C   -0.255618
     3  C   -0.096025
     4  C   -0.054092
     5  C   -0.334212
     6  C   -0.093951
     7  C   -0.097559
     8  H    0.410054
     9  H    0.244095
    10  H    0.258920
    11  H    0.253344
    12  H    0.259450
    13  H    0.278312
    14  H    0.410111
 Sum of Mulliken charges =   1.00000

 Dipole moment (field-independent basis, Debye):
    X=             -6.1214    Y=              1.0543    Z=             -0.0004  Tot=              6.2115
 Quadrupole moment (field-independent basis, Debye-Ang):
   XX=             -8.1022   YY=            -30.2620   ZZ=            -40.1038
   XY=             -3.4316   XZ=              0.0025   YZ=              0.0028

  Exact polarizability:  80.320  -0.841  74.692   0.003   0.000  39.229
 Approx polarizability: 101.827  -0.726 100.498   0.004   0.000  51.139

                      1                      2                      3
                      A                      A                      A
 Frequencies --    137.5680               220.3475               364.1186
 Red. masses --      1.0431                 3.5417                 3.0180
 Frc consts  --      0.0116                 0.1013                 0.2358
 IR Inten    --     48.4809                 8.2300                26.7069

                      4                      5                      6
                      A                      A                      A
 Frequencies --    418.0172               456.8841               513.9454
 Red. masses --      2.8627                 2.9627                 6.2121
 Frc consts  --      0.2947                 0.3644                 0.9668
 IR Inten    --      0.3257                17.6989                 0.3405

                      7                      8                      9
                      A                      A                      A
 Frequencies --    600.1789               616.2715               672.2842
 Red. masses --      1.3756                 5.7598                 3.3633
 Frc consts  --      0.2919                 1.2888                 0.8956
 IR Inten    --    243.9686                12.8211                 9.2199

                     10                     11                     12
                      A                      A                      A
 Frequencies --    756.9190               759.5052               833.2352
 Red. masses --      1.2012                 5.7979                 1.2480
 Frc consts  --      0.4055                 1.9705                 0.5105
 IR Inten    --     89.2010                16.2368                 0.8674

                     13                     14                     15
                      A                      A                      A
 Frequencies --    931.4499              1003.0181              1006.1029
 Red. masses --      1.2547                 6.7953                 1.3565
 Frc consts  --      0.6414                 4.0279                 0.8090
 IR Inten    --      0.2721                20.9179                 0.0159

                     16                     17                     18
                      A                      A                      A
 Frequencies --   1041.2023              1045.9197              1056.6401
 Red. masses --      1.3192                 2.2987                 1.2782
 Frc consts  --      0.8426                 1.4816                 0.8408
 IR Inten    --      0.0607                 2.9662                 8.6985

                     19                     20                     21
                      A                      A                      A
 Frequencies --   1105.4844              1110.5186              1191.7747
 Red. masses --      1.5121                 2.5724                 1.1528
 Frc consts  --      1.0888                 1.8691                 0.9647
 IR Inten    --      4.7081                11.8484                 0.7443

                     22                     23                     24
                      A                      A                      A
 Frequencies --   1193.7025              1336.2327              1337.2565
 Red. masses --      1.1524                 5.6289                 1.3265
 Frc consts  --      0.9675                 5.9216                 1.3976
 IR Inten    --      0.8758                15.9356                 0.1075

                     25                     26                     27
                      A                      A                      A
 Frequencies --   1503.8765              1517.2329              1635.9791
 Red. masses --      2.2901                 2.2386                 5.6921
 Frc consts  --      3.0517                 3.0363                 8.9760
 IR Inten    --      4.8018                46.6174                 1.7852

                     28                     29                     30
                      A                      A                      A
 Frequencies --   1644.1781              1703.2484              3217.5039
 Red. masses --      1.2497                 4.1012                 1.0923
 Frc consts  --      1.9905                 7.0101                 6.6626
 IR Inten    --    126.7846                13.2036                 2.5261

                     31                     32                     33
                      A                      A                      A
 Frequencies --   3226.3479              3234.8059              3240.8142
 Red. masses --      1.0904                 1.0926                 1.0968
 Frc consts  --      6.6873                 6.7364                 6.7872
 IR Inten    --      1.0368                 1.0728                10.4189

                     34                     35                     36
                      A                      A                      A
 Frequencies --   3245.4751              3688.2379              3775.1139
 Red. masses --      1.0998                 1.0411                 1.0914
 Frc consts  --      6.8255                 8.3445                 9.1642
 IR Inten    --      3.4642               297.4254               360.8769

 - Thermochemistry -
 -------------------
 Temperature     0.001 Kelvin.  Pressure   1.00000 Atm.
 Atom     1 has atomic number  8 and mass  15.99491

 Molecular mass:    95.04969 amu.
 Principal axes and moments of inertia in atomic units:
                           1         2         3
     Eigenvalues --   327.30540 724.474821042.37490
           X            0.99992  -0.01271   0.00001
           Y            0.01271   0.99992   0.00001
           Z           -0.00001  -0.00001   1.00000
 This molecule is an asymmetric top.
 Rotational symmetry number  1.
 Rotational temperatures (Kelvin)      0.26463     0.11955     0.08309
 Rotational constants (GHZ):           5.51394     2.49110     1.73137
 Zero-point vibrational energy     307089.7 (Joules/Mol)
                                   73.39620 (Kcal/Mol)
 Vibrational temperatures:    197.93   317.03   523.89   601.43   657.35
          (Kelvin)            739.45   863.52   886.68   967.27  1089.04
                             1092.76  1198.84  1340.15  1443.12  1447.56
                             1498.06  1504.85  1520.27  1590.55  1597.79
                             1714.70  1717.47  1922.54  1924.01  2163.74
                             2182.96  2353.81  2365.61  2450.59  4629.27
                             4642.00  4654.16  4662.81  4669.51  5306.55
                             5431.55

 Zero-point correction=                           0.116964 (Hartree/Particle)
 Thermal correction to Energy=                    0.116964
 Thermal correction to Enthalpy=                  0.116964
 Thermal correction to Gibbs Free Energy=         0.116964
 Sum of electronic and zero-point Energies=           -307.598069
 Sum of electronic and thermal Energies=              -307.598069
 Sum of electronic and thermal Enthalpies=            -307.598069
 Sum of electronic and thermal Free Energies=         -307.598069

                     E (Thermal)             CV                S
                      KCal/Mol        Cal/Mol-Kelvin    Cal/Mol-Kelvin
 Total                   73.396              5.962            -33.626
 Electronic               0.000              0.000              0.000
 Translational            0.000              2.981            -23.057
 Rotational               0.000              2.981            -10.569
 Vibrational             73.396              0.000              0.000

 Optimization completed.
    -- Stationary point found.
 Normal termination of Gaussian 16 at Sun Oct 13 21:39:54 2019.
