 Gaussian 16, Revision A.03,
 Gaussian 16:  ES64L-G16RevA.03 25-Dec-2016

 -------------------------------------------------------------------
 #P opt freq m062x/6-311++g(d,p) geom=connectivity temperature=0.001
 -------------------------------------------------------------------

 -------------------
 Title Card Required
 -------------------
 Symbolic Z-matrix:
 Charge =  0 Multiplicity = 1

 SCF Done:  E(RM062X) =  -630.527321375     A.U. after   14 cycles
 SCF Done:  E(RM062X) =  -630.549168354     A.U. after   13 cycles
 SCF Done:  E(RM062X) =  -630.557410118     A.U. after   12 cycles
 SCF Done:  E(RM062X) =  -630.558152507     A.U. after   11 cycles
 SCF Done:  E(RM062X) =  -630.558572043     A.U. after   12 cycles
 SCF Done:  E(RM062X) =  -630.558886616     A.U. after   13 cycles
 SCF Done:  E(RM062X) =  -630.559446748     A.U. after   11 cycles
 SCF Done:  E(RM062X) =  -630.560192399     A.U. after   12 cycles
 SCF Done:  E(RM062X) =  -630.560498155     A.U. after   14 cycles
 SCF Done:  E(RM062X) =  -630.560818202     A.U. after   12 cycles
 SCF Done:  E(RM062X) =  -630.560860493     A.U. after   12 cycles
 SCF Done:  E(RM062X) =  -630.560927671     A.U. after   11 cycles
 SCF Done:  E(RM062X) =  -630.560946856     A.U. after   11 cycles
 SCF Done:  E(RM062X) =  -630.560953869     A.U. after   10 cycles
 SCF Done:  E(RM062X) =  -630.560955563     A.U. after   10 cycles
 SCF Done:  E(RM062X) =  -630.560955856     A.U. after    9 cycles
 Optimization completed.
    -- Stationary point found.
 Normal termination of Gaussian 16 at Sun Oct 13 21:40:32 2019.

 ----------------------------------------------------------------------
 #P Geom=AllCheck Guess=TCheck SCRF=Check GenChk RM062X/6-311++G(d,p) F
 req
 ----------------------------------------------------------------------

 Structure from the checkpoint file:  "22.chk"
 -------------------
 Title Card Required
 -------------------
 Charge =  0 Multiplicity = 1

                         Standard orientation:
 ---------------------------------------------------------------------
 Center     Atomic      Atomic             Coordinates (Angstroms)
 Number     Number       Type             X           Y           Z
 ---------------------------------------------------------------------
      1          8           0       -1.665892    0.072648    0.918337
      2         16           0       -1.005132   -0.102373   -0.428523
      3          6           0        0.338321   -1.344079   -0.155087
      4          6           0        1.654212   -0.603547    0.137844
      5          6           0        1.301291    0.847322    0.481153
      6          6           0        0.234864    1.238841   -0.531509
      7          1           0       -0.036428   -1.910756    0.697714
      8          1           0        0.396876   -1.999518   -1.024182
      9          1           0        2.204420   -1.089398    0.944505
     10          1           0        2.290850   -0.618081   -0.750634
     11          1           0        0.877055    0.913787    1.485621
     12          1           0        2.171559    1.503793    0.429150
     13          1           0       -0.292439    2.166749   -0.313741
     14          1           0        0.625227    1.258979   -1.553156
 ---------------------------------------------------------------------

 SCF Done:  E(RM062X) =  -630.560955856     A.U. after    1 cycles

 The electronic state is 1-A.
 Alpha  occ. eigenvalues --  -89.99106 -19.57254 -10.57251 -10.57162 -10.55910
 Alpha  occ. eigenvalues --  -10.55433  -8.34813  -6.26858  -6.26784  -6.26460
 Alpha  occ. eigenvalues --   -1.12384  -0.95083  -0.84081  -0.81688  -0.68262
 Alpha  occ. eigenvalues --   -0.66910  -0.57672  -0.56715  -0.53131  -0.49155
 Alpha  occ. eigenvalues --   -0.46504  -0.45497  -0.43674  -0.42896  -0.42025
 Alpha  occ. eigenvalues --   -0.41061  -0.32555  -0.29151
 Alpha virt. eigenvalues --   -0.01019   0.00836   0.00954   0.01918   0.02936
 Alpha virt. eigenvalues --    0.03810   0.04257   0.04476   0.04699   0.06298
 Alpha virt. eigenvalues --    0.06881   0.09035   0.09739   0.10382   0.10721

 Mulliken charges:
               1
     1  O   -0.477219
     2  S    0.589379
     3  C   -0.563871
     4  C   -0.307356
     5  C   -0.346311
     6  C   -0.530659
     7  H    0.247596
     8  H    0.176779
     9  H    0.184996
    10  H    0.188315
    11  H    0.233032
    12  H    0.181668
    13  H    0.254927
    14  H    0.168724
 Sum of Mulliken charges =  -0.00000

 Dipole moment (field-independent basis, Debye):
    X=              3.9560    Y=             -0.2213    Z=             -2.4823  Tot=              4.6756
 Quadrupole moment (field-independent basis, Debye-Ang):
   XX=            -49.8634   YY=            -40.5871   ZZ=            -46.3341
   XY=              0.2541   XZ=              4.0497   YZ=             -0.7852

  Exact polarizability:  73.071  -0.479  67.653  -1.985  -0.159  60.437
 Approx polarizability:  86.804  -0.921  80.871  -7.006  -0.206  79.853

                      1                      2                      3
                      A                      A                      A
 Frequencies --     68.0645               233.9664               311.0277
 Red. masses --      2.3362                 2.4078                 4.0155
 Frc consts  --      0.0064                 0.0777                 0.2289
 IR Inten    --      6.0993                 5.0063                 6.7225

                      4                      5                      6
                      A                      A                      A
 Frequencies --    344.4369               527.5696               540.7240
 Red. masses --      2.2033                 2.7495                 3.4300
 Frc consts  --      0.1540                 0.4509                 0.5909
 IR Inten    --      2.7977                 6.8501                 7.2495

                      7                      8                      9
                      A                      A                      A
 Frequencies --    648.2045               681.4774               783.3233
 Red. masses --      3.9419                 3.7615                 1.4418
 Frc consts  --      0.9758                 1.0292                 0.5212
 IR Inten    --      9.1936                 3.5537                 4.8582

                     10                     11                     12
                      A                      A                      A
 Frequencies --    882.6512               896.4818               914.3035
 Red. masses --      2.0042                 1.6987                 2.1883
 Frc consts  --      0.9200                 0.8043                 1.0778
 IR Inten    --      0.9711                 2.2435                 0.9293

                     13                     14                     15
                      A                      A                      A
 Frequencies --    977.2727              1015.1234              1043.3637
 Red. masses --      1.8275                 1.4468                 5.0667
 Frc consts  --      1.0284                 0.8784                 3.2497
 IR Inten    --      4.8058                 3.9403               134.2205

                     16                     17                     18
                      A                      A                      A
 Frequencies --   1062.9245              1119.2320              1168.3810
 Red. masses --      1.7992                 1.2321                 1.4646
 Frc consts  --      1.1977                 0.9093                 1.1780
 IR Inten    --      0.9498                21.8693                 3.6573

                     19                     20                     21
                      A                      A                      A
 Frequencies --   1224.1711              1238.5742              1283.3385
 Red. masses --      1.4040                 1.3874                 1.2190
 Frc consts  --      1.2397                 1.2540                 1.1828
 IR Inten    --      0.3515                 0.6412                 2.5801

                     22                     23                     24
                      A                      A                      A
 Frequencies --   1304.0672              1341.7706              1369.3132
 Red. masses --      1.3525                 1.3908                 1.3149
 Frc consts  --      1.3552                 1.4753                 1.4526
 IR Inten    --      3.5416                 3.9330                 0.2454

                     25                     26                     27
                      A                      A                      A
 Frequencies --   1455.8391              1461.6713              1488.2856
 Red. masses --      1.0992                 1.0833                 1.0865
 Frc consts  --      1.3727                 1.3636                 1.4179
 IR Inten    --      7.7171                 5.4696                 7.0128

                     28                     29                     30
                      A                      A                      A
 Frequencies --   1508.6744              3077.1674              3080.8325
 Red. masses --      1.1029                 1.0651                 1.0636
 Frc consts  --      1.4790                 5.9422                 5.9479
 IR Inten    --      2.0590                21.5935                 7.5389

                     31                     32                     33
                      A                      A                      A
 Frequencies --   3087.7390              3103.5117              3130.4428
 Red. masses --      1.0594                 1.0592                 1.1007
 Frc consts  --      5.9513                 6.0108                 6.3549
 IR Inten    --     13.4166                 7.3864                 9.2625

                     34                     35                     36
                      A                      A                      A
 Frequencies --   3140.6415              3165.9771              3167.4148
 Red. masses --      1.1061                 1.1043                 1.1076
 Frc consts  --      6.4283                 6.5215                 6.5470
 IR Inten    --     10.4533                 0.3083                 4.2523

 - Thermochemistry -
 -------------------
 Temperature     0.001 Kelvin.  Pressure   1.00000 Atm.
 Atom     1 has atomic number  8 and mass  15.99491

 Molecular mass:   104.02959 amu.
 Principal axes and moments of inertia in atomic units:
                           1         2         3
     Eigenvalues --   379.33709 648.49201 785.14182
           X            0.99993  -0.00375   0.01124
           Y            0.00389   0.99991  -0.01256
           Z           -0.01119   0.01261   0.99986
 This molecule is an asymmetric top.
 Rotational symmetry number  1.
 Rotational temperatures (Kelvin)      0.22833     0.13356     0.11032
 Rotational constants (GHZ):           4.75762     2.78298     2.29862
 Zero-point vibrational energy     310119.7 (Joules/Mol)
                                   74.12038 (Kcal/Mol)
 Vibrational temperatures:     97.93   336.63   447.50   495.57   759.05
          (Kelvin)            777.98   932.62   980.49  1127.03  1269.94
                             1289.84  1315.48  1406.08  1460.54  1501.17
                             1529.31  1610.33  1681.04  1761.31  1782.03
                             1846.44  1876.26  1930.51  1970.14  2094.63
                             2103.02  2141.31  2170.65  4427.36  4432.63
                             4442.57  4465.26  4504.01  4518.68  4555.13
                             4557.20

 Zero-point correction=                           0.118118 (Hartree/Particle)
 Thermal correction to Energy=                    0.118118
 Thermal correction to Enthalpy=                  0.118118
 Thermal correction to Gibbs Free Energy=         0.118118
 Sum of electronic and zero-point Energies=           -630.442838
 Sum of electronic and thermal Energies=              -630.442838
 Sum of electronic and thermal Enthalpies=            -630.442837
 Sum of electronic and thermal Free Energies=         -630.442837

                     E (Thermal)             CV                S
                      KCal/Mol        Cal/Mol-Kelvin    Cal/Mol-Kelvin
 Total                   74.120              5.962            -33.602
 Electronic               0.000              0.000              0.000
 Translational            0.000              2.981            -22.788
 Rotational               0.000              2.981            -10.814
 Vibrational             74.120              0.000              0.000

 Optimization completed.
    -- Stationary point found.
 Normal termination of Gaussian 16 at Sun Oct 13 21:41:21 2019.
