 Gaussian 16, Revision A.03,
 Gaussian 16:  ES64L-G16RevA.03 25-Dec-2016

 -------------------------------------------------------------------
 #P opt freq m062x/6-311++g(d,p) geom=connectivity temperature=0.001
 -------------------------------------------------------------------

 -------------------
 Title Card Required
 -------------------
 Symbolic Z-matrix:
 Charge =  1 Multiplicity = 1

 SCF Done:  E(RM062X) =  -630.889870923     A.U. after   13 cycles
 SCF Done:  E(RM062X) =  -630.907492998     A.U. after   11 cycles
 SCF Done:  E(RM062X) =  -630.913555930     A.U. after   11 cycles
 SCF Done:  E(RM062X) =  -630.914718404     A.U. after   11 cycles
 SCF Done:  E(RM062X) =  -630.915713733     A.U. after   13 cycles
 SCF Done:  E(RM062X) =  -630.916586216     A.U. after   10 cycles
 SCF Done:  E(RM062X) =  -630.917355806     A.U. after   11 cycles
 SCF Done:  E(RM062X) =  -630.917541029     A.U. after   11 cycles
 SCF Done:  E(RM062X) =  -630.917554159     A.U. after    8 cycles
 SCF Done:  E(RM062X) =  -630.917570637     A.U. after    9 cycles
 SCF Done:  E(RM062X) =  -630.917572086     A.U. after    8 cycles
 SCF Done:  E(RM062X) =  -630.917572588     A.U. after    8 cycles
 SCF Done:  E(RM062X) =  -630.917572686     A.U. after    7 cycles
 Optimization completed.
    -- Stationary point found.
 Normal termination of Gaussian 16 at Sun Oct 13 21:40:12 2019.

 ----------------------------------------------------------------------
 #P Geom=AllCheck Guess=TCheck SCRF=Check GenChk RM062X/6-311++G(d,p) F
 req
 ----------------------------------------------------------------------

 Structure from the checkpoint file:  "22_p.chk"
 -------------------
 Title Card Required
 -------------------
 Charge =  1 Multiplicity = 1

                         Standard orientation:
 ---------------------------------------------------------------------
 Center     Atomic      Atomic             Coordinates (Angstroms)
 Number     Number       Type             X           Y           Z
 ---------------------------------------------------------------------
      1          8           0       -1.783643    0.068831    0.811216
      2         16           0       -0.916974   -0.124478   -0.538979
      3          6           0        0.357588   -1.359919   -0.070172
      4          6           0        1.680944   -0.603461    0.124447
      5          6           0        1.344133    0.844570    0.485482
      6          6           0        0.250435    1.267976   -0.490305
      7          1           0       -0.031773   -1.823767    0.839324
      8          1           0        0.379688   -2.112751   -0.857771
      9          1           0        2.274370   -1.090945    0.897775
     10          1           0        2.257928   -0.628861   -0.801689
     11          1           0        1.001368    0.929524    1.521708
     12          1           0        2.208700    1.501452    0.385998
     13          1           0       -0.322944    2.160448   -0.235853
     14          1           0        0.624623    1.361857   -1.513885
     15          1           0       -1.249822    0.249044    1.601623
 ---------------------------------------------------------------------

 SCF Done:  E(RM062X) =  -630.917572686     A.U. after    1 cycles

 The electronic state is 1-A.
 Alpha  occ. eigenvalues --  -90.22262 -19.88001 -10.77747 -10.77602 -10.73681
 Alpha  occ. eigenvalues --  -10.73227  -8.58145  -6.50281  -6.49948  -6.49681
 Alpha  occ. eigenvalues --   -1.40916  -1.16641  -1.04462  -1.03712  -0.91264
 Alpha  occ. eigenvalues --   -0.87007  -0.81855  -0.77352  -0.73740  -0.72394
 Alpha  occ. eigenvalues --   -0.70471  -0.68023  -0.64078  -0.62432  -0.61148
 Alpha  occ. eigenvalues --   -0.59944  -0.58596  -0.57865
 Alpha virt. eigenvalues --   -0.18909  -0.15261  -0.14612  -0.12563  -0.10929
 Alpha virt. eigenvalues --   -0.10795  -0.09663  -0.09109  -0.08196  -0.07996
 Alpha virt. eigenvalues --   -0.06592  -0.05646  -0.04550  -0.04135  -0.03506

 Mulliken charges:
               1
     1  O   -0.180315
     2  S    0.494791
     3  C   -0.556685
     4  C   -0.308877
     5  C   -0.334412
     6  C   -0.585114
     7  H    0.284320
     8  H    0.283295
     9  H    0.244331
    10  H    0.248996
    11  H    0.223847
    12  H    0.251164
    13  H    0.308005
    14  H    0.282276
    15  H    0.344378
 Sum of Mulliken charges =   1.00000

 Dipole moment (field-independent basis, Debye):
    X=              1.8448    Y=              0.1449    Z=              0.1302  Tot=              1.8550
 Quadrupole moment (field-independent basis, Debye-Ang):
   XX=            -39.0328   YY=            -33.7406   ZZ=            -35.2687
   XY=             -0.2698   XZ=             -0.1990   YZ=             -0.0597

  Exact polarizability:  66.108  -0.296  61.950  -0.739  -0.304  54.301
 Approx polarizability:  80.347  -0.130  75.591  -2.197  -0.457  71.420

                      1                      2                      3
                      A                      A                      A
 Frequencies --     87.9991               239.5494               311.9252
 Red. masses --      2.4198                 2.3515                 2.9778
 Frc consts  --      0.0110                 0.0795                 0.1707
 IR Inten    --      5.2775                 2.1030                 3.4622

                      4                      5                      6
                      A                      A                      A
 Frequencies --    332.2876               359.6126               504.1981
 Red. masses --      1.7023                 1.2832                 5.3699
 Frc consts  --      0.1107                 0.0978                 0.8043
 IR Inten    --      9.7536               139.8998                 4.3852

                      7                      8                      9
                      A                      A                      A
 Frequencies --    532.3092               648.9634               668.2191
 Red. masses --      2.0968                 3.7993                 3.6964
 Frc consts  --      0.3500                 0.9427                 0.9725
 IR Inten    --      4.0846                 1.0606                 5.3096

                     10                     11                     12
                      A                      A                      A
 Frequencies --    791.2645               845.1671               887.2635
 Red. masses --      1.4649                 7.4976                 1.9944
 Frc consts  --      0.5404                 3.1554                 0.9251
 IR Inten    --      8.4459                63.0977                27.4368

                     13                     14                     15
                      A                      A                      A
 Frequencies --    894.2595               908.0718               967.1947
 Red. masses --      1.9303                 2.0040                 2.0322
 Frc consts  --      0.9095                 0.9736                 1.1201
 IR Inten    --      6.5161                 4.4819                 3.8460

                     16                     17                     18
                      A                      A                      A
 Frequencies --   1040.0053              1062.1919              1100.1196
 Red. masses --      1.4464                 1.7552                 1.0552
 Frc consts  --      0.9217                 1.1667                 0.7524
 IR Inten    --      2.0264                 1.2132                37.7568

                     19                     20                     21
                      A                      A                      A
 Frequencies --   1174.4001              1177.2796              1221.6748
 Red. masses --      1.3857                 1.2209                 1.3546
 Frc consts  --      1.1260                 0.9970                 1.1912
 IR Inten    --      3.4269                31.0510                 3.2843

                     22                     23                     24
                      A                      A                      A
 Frequencies --   1245.0431              1289.7388              1319.6204
 Red. masses --      1.3177                 1.2094                 1.3105
 Frc consts  --      1.2035                 1.1853                 1.3445
 IR Inten    --      2.1844                 7.3078                 3.5206

                     25                     26                     27
                      A                      A                      A
 Frequencies --   1346.8821              1376.2034              1454.7168
 Red. masses --      1.3718                 1.3347                 1.0884
 Frc consts  --      1.4662                 1.4893                 1.3571
 IR Inten    --      4.4795                 0.9407                15.7799

                     28                     29                     30
                      A                      A                      A
 Frequencies --   1467.1690              1495.6557              1509.7092
 Red. masses --      1.0760                 1.0795                 1.0999
 Frc consts  --      1.3647                 1.4227                 1.4770
 IR Inten    --     13.2901                16.8067                 4.1235

                     31                     32                     33
                      A                      A                      A
 Frequencies --   3072.4449              3090.4358              3099.4544
 Red. masses --      1.0707                 1.0613                 1.0635
 Frc consts  --      5.9552                 5.9724                 6.0195
 IR Inten    --      8.1550                 5.0978                 4.7009

                     34                     35                     36
                      A                      A                      A
 Frequencies --   3102.2492              3144.8058              3155.2186
 Red. masses --      1.0615                 1.0971                 1.1051
 Frc consts  --      6.0187                 6.3930                 6.4820
 IR Inten    --      2.9704                 2.1241                 3.5014

                     37                     38                     39
                      A                      A                      A
 Frequencies --   3160.8398              3168.0039              3774.0481
 Red. masses --      1.1064                 1.1066                 1.0672
 Frc consts  --      6.5129                 6.5435                 8.9559
 IR Inten    --      3.8592                 3.6544               105.8110

 - Thermochemistry -
 -------------------
 Temperature     0.001 Kelvin.  Pressure   1.00000 Atm.
 Atom     1 has atomic number  8 and mass  15.99491

 Molecular mass:   105.03741 amu.
 Principal axes and moments of inertia in atomic units:
                           1         2         3
     Eigenvalues --   393.86226 677.62605 813.78855
           X            0.99997  -0.00652  -0.00406
           Y            0.00648   0.99994  -0.00933
           Z            0.00412   0.00930   0.99995
 This molecule is an asymmetric top.
 Rotational symmetry number  1.
 Rotational temperatures (Kelvin)      0.21991     0.12782     0.10643
 Rotational constants (GHZ):           4.58216     2.66333     2.21770
 Zero-point vibrational energy     341092.4 (Joules/Mol)
                                   81.52304 (Kcal/Mol)
 Vibrational temperatures:    126.61   344.66   448.79   478.09   517.40
          (Kelvin)            725.43   765.87   933.71   961.42  1138.45
                             1216.01  1276.57  1286.64  1306.51  1391.58
                             1496.34  1528.26  1582.83  1689.70  1693.84
                             1757.72  1791.34  1855.65  1898.64  1937.86
                             1980.05  2093.01  2110.93  2151.91  2172.13
                             4420.56  4446.45  4459.42  4463.44  4524.67
                             4539.66  4547.74  4558.05  5430.01

 Zero-point correction=                           0.129915 (Hartree/Particle)
 Thermal correction to Energy=                    0.129915
 Thermal correction to Enthalpy=                  0.129915
 Thermal correction to Gibbs Free Energy=         0.129915
 Sum of electronic and zero-point Energies=           -630.787657
 Sum of electronic and thermal Energies=              -630.787657
 Sum of electronic and thermal Enthalpies=            -630.787657
 Sum of electronic and thermal Free Energies=         -630.787657

                     E (Thermal)             CV                S
                      KCal/Mol        Cal/Mol-Kelvin    Cal/Mol-Kelvin
 Total                   81.523              5.962            -33.457
 Electronic               0.000              0.000              0.000
 Translational            0.000              2.981            -22.759
 Rotational               0.000              2.981            -10.698
 Vibrational             81.523              0.000              0.000

 Optimization completed.
    -- Stationary point found.
 Normal termination of Gaussian 16 at Sun Oct 13 21:41:08 2019.
