 Gaussian 16, Revision A.03,
 Gaussian 16:  ES64L-G16RevA.03 25-Dec-2016

 -------------------------------------------------------------------
 #P opt freq m062x/6-311++g(d,p) geom=connectivity temperature=0.001
 -------------------------------------------------------------------

 -------------------
 Title Card Required
 -------------------
 Symbolic Z-matrix:
 Charge =  0 Multiplicity = 1

 SCF Done:  E(RM062X) =  -705.709456245     A.U. after   14 cycles
 SCF Done:  E(RM062X) =  -705.748986744     A.U. after   13 cycles
 SCF Done:  E(RM062X) =  -705.761122554     A.U. after   13 cycles
 SCF Done:  E(RM062X) =  -705.766416269     A.U. after   12 cycles
 SCF Done:  E(RM062X) =  -705.766891159     A.U. after   11 cycles
 SCF Done:  E(RM062X) =  -705.766933067     A.U. after   11 cycles
 SCF Done:  E(RM062X) =  -705.766941376     A.U. after   10 cycles
 SCF Done:  E(RM062X) =  -705.766950542     A.U. after   11 cycles
 SCF Done:  E(RM062X) =  -705.766954617     A.U. after   11 cycles
 SCF Done:  E(RM062X) =  -705.766955985     A.U. after   10 cycles
 SCF Done:  E(RM062X) =  -705.766956010     A.U. after    8 cycles
 Optimization completed.
    -- Stationary point found.
 Normal termination of Gaussian 16 at Sun Oct 13 21:41:16 2019.

 ----------------------------------------------------------------------
 #P Geom=AllCheck Guess=TCheck SCRF=Check GenChk RM062X/6-311++G(d,p) F
 req
 ----------------------------------------------------------------------

 Structure from the checkpoint file:  "23.chk"
 -------------------
 Title Card Required
 -------------------
 Charge =  0 Multiplicity = 1

                         Standard orientation:
 ---------------------------------------------------------------------
 Center     Atomic      Atomic             Coordinates (Angstroms)
 Number     Number       Type             X           Y           Z
 ---------------------------------------------------------------------
      1          8           0       -1.500122    0.362603   -1.211517
      2         16           0       -0.775491    0.000023   -0.000006
      3          6           0        0.440678    1.296145    0.388833
      4          6           0        1.764797    0.755015   -0.145604
      5          6           0        1.764848   -0.755016    0.145578
      6          6           0        0.440618   -1.296244   -0.388542
      7          8           0       -1.500555   -0.362530    1.211247
      8          1           0        0.094055    2.213397   -0.083142
      9          1           0        0.441844    1.396886    1.474434
     10          1           0        1.826476    0.922562   -1.224280
     11          1           0        2.611406    1.258560    0.321466
     12          1           0        2.611349   -1.258546   -0.321700
     13          1           0        1.826798   -0.922533    1.224238
     14          1           0        0.441652   -1.397327   -1.474107
     15          1           0        0.094051   -2.213356    0.083752
 ---------------------------------------------------------------------

 SCF Done:  E(RM062X) =  -705.766956010     A.U. after    1 cycles

 The electronic state is 1-A.
 Alpha  occ. eigenvalues --  -90.09274 -19.61406 -19.61404 -10.58589 -10.58588
 Alpha  occ. eigenvalues --  -10.57627 -10.57591  -8.43759  -6.35946  -6.35853
 Alpha  occ. eigenvalues --   -6.35849  -1.23282  -1.12442  -0.97205  -0.86507
 Alpha  occ. eigenvalues --   -0.81933  -0.70818  -0.67773  -0.60286  -0.59179
 Alpha  occ. eigenvalues --   -0.54446  -0.54320  -0.52375  -0.52198  -0.47338
 Alpha  occ. eigenvalues --   -0.45927  -0.44831  -0.43774  -0.39628  -0.39052
 Alpha  occ. eigenvalues --   -0.37502  -0.34766
 Alpha virt. eigenvalues --   -0.01362   0.00378   0.00667   0.01315   0.03391
 Alpha virt. eigenvalues --    0.03409   0.03687   0.05135   0.05450   0.07346
 Alpha virt. eigenvalues --    0.08040   0.08730   0.09022   0.09125   0.10187

 Mulliken charges:
               1
     1  O   -0.189561
     2  S    0.563720
     3  C   -0.690099
     4  C   -0.297282
     5  C   -0.297164
     6  C   -0.690178
     7  O   -0.189476
     8  H    0.242396
     9  H    0.241349
    10  H    0.205380
    11  H    0.205913
    12  H    0.205908
    13  H    0.205349
    14  H    0.241363
    15  H    0.242382
 Sum of Mulliken charges =  -0.00000

 Dipole moment (field-independent basis, Debye):
    X=              5.7453    Y=             -0.0001    Z=              0.0007  Tot=              5.7453
 Quadrupole moment (field-independent basis, Debye-Ang):
   XX=            -55.0853   YY=            -44.8620   ZZ=            -54.4996
   XY=             -0.0001   XZ=              0.0003   YZ=              3.1015

  Exact polarizability:  73.554   0.001  65.837  -0.000  -0.132  63.209
 Approx polarizability:  84.407   0.001  77.346  -0.001  -2.782  85.718

                      1                      2                      3
                      A                      A                      A
 Frequencies --     48.7944               237.5859               320.3998
 Red. masses --      2.9741                 2.6919                 2.2055
 Frc consts  --      0.0042                 0.0895                 0.1334
 IR Inten    --      2.9446                 0.0870                 0.0738

                      4                      5                      6
                      A                      A                      A
 Frequencies --    364.3048               369.5257               433.0114
 Red. masses --      2.8875                 6.6394                 5.8313
 Frc consts  --      0.2258                 0.5342                 0.6442
 IR Inten    --      1.0569                14.4921                30.5734

                      7                      8                      9
                      A                      A                      A
 Frequencies --    507.7011               559.0350               675.5482
 Red. masses --      2.0689                 6.7368                 3.8097
 Frc consts  --      0.3142                 1.2404                 1.0244
 IR Inten    --      5.2591                20.9413                 9.8644

                     10                     11                     12
                      A                      A                      A
 Frequencies --    743.3167               812.5143               898.8852
 Red. masses --      2.8916                 1.4511                 2.5356
 Frc consts  --      0.9413                 0.5644                 1.2071
 IR Inten    --     54.2191                 1.3585                 0.3164

                     13                     14                     15
                      A                      A                      A
 Frequencies --    915.6479               926.6639               991.4637
 Red. masses --      1.4079                 2.6909                 1.7335
 Frc consts  --      0.6955                 1.3614                 1.0040
 IR Inten    --      3.5998                20.9120                 0.2097

                     16                     17                     18
                      A                      A                      A
 Frequencies --   1014.2293              1056.8276              1098.2350
 Red. masses --      1.3107                 1.6612                 1.1218
 Frc consts  --      0.7943                 1.0931                 0.7972
 IR Inten    --      0.1190                 2.8873                 3.6007

                     19                     20                     21
                      A                      A                      A
 Frequencies --   1124.3687              1171.9627              1227.1111
 Red. masses --      4.6024                 1.8338                 1.5467
 Frc consts  --      3.4281                 1.4840                 1.3723
 IR Inten    --    128.9544                83.7886                 2.0123

                     22                     23                     24
                      A                      A                      A
 Frequencies --   1229.2826              1287.8936              1311.7229
 Red. masses --      1.4631                 1.3401                 1.4346
 Frc consts  --      1.3027                 1.3096                 1.4544
 IR Inten    --      0.2594                29.4465                29.0294

                     25                     26                     27
                      A                      A                      A
 Frequencies --   1337.3490              1353.4800              1370.5020
 Red. masses --      3.2892                 1.7976                 1.3352
 Frc consts  --      3.4660                 1.9402                 1.4776
 IR Inten    --    150.6417                76.0487                 0.0066

                     28                     29                     30
                      A                      A                      A
 Frequencies --   1462.1356              1465.1044              1492.2534
 Red. masses --      1.0819                 1.0997                 1.0852
 Frc consts  --      1.3627                 1.3907                 1.4238
 IR Inten    --      1.9595                14.3449                 7.8071

                     31                     32                     33
                      A                      A                      A
 Frequencies --   1505.9894              3078.4859              3085.0932
 Red. masses --      1.1051                 1.0672                 1.0615
 Frc consts  --      1.4767                 5.9592                 5.9523
 IR Inten    --      2.5950                 8.2153                15.5243

                     34                     35                     36
                      A                      A                      A
 Frequencies --   3112.5725              3112.7421              3138.8876
 Red. masses --      1.0594                 1.0593                 1.0992
 Frc consts  --      6.0471                 6.0472                 6.3810
 IR Inten    --      0.5280                 1.5134                 8.7798

                     37                     38                     39
                      A                      A                      A
 Frequencies --   3143.6928              3186.7121              3187.3957
 Red. masses --      1.1039                 1.1090                 1.1094
 Frc consts  --      6.4277                 6.6356                 6.6405
 IR Inten    --     11.1508                 0.1386                 0.0469

 - Thermochemistry -
 -------------------
 Temperature     0.001 Kelvin.  Pressure   1.00000 Atm.
 Atom     1 has atomic number  8 and mass  15.99491

 Molecular mass:   120.02450 amu.
 Principal axes and moments of inertia in atomic units:
                           1         2         3
     Eigenvalues --   484.33982 889.71636 956.79890
           X            1.00000  -0.00000   0.00000
           Y            0.00000   0.99251   0.12219
           Z           -0.00000  -0.12219   0.99251
 This molecule is an asymmetric top.
 Rotational symmetry number  1.
 Warning -- assumption of classical behavior for rotation
           may cause significant error
 Rotational temperatures (Kelvin)      0.17883     0.09735     0.09052
 Rotational constants (GHZ):           3.72619     2.02845     1.88623
 Zero-point vibrational energy     325135.6 (Joules/Mol)
                                   77.70927 (Kcal/Mol)
 Vibrational temperatures:     70.20   341.83   460.98   524.15   531.67
          (Kelvin)            623.01   730.47   804.33   971.96  1069.47
                             1169.03  1293.30  1317.41  1333.26  1426.50
                             1459.25  1520.54  1580.12  1617.72  1686.19
                             1765.54  1768.66  1852.99  1887.28  1924.15
                             1947.36  1971.85  2103.69  2107.96  2147.02
                             2166.78  4429.25  4438.76  4478.30  4478.54
                             4516.16  4523.07  4584.97  4585.95

 Zero-point correction=                           0.123838 (Hartree/Particle)
 Thermal correction to Energy=                    0.123838
 Thermal correction to Enthalpy=                  0.123838
 Thermal correction to Gibbs Free Energy=         0.123838
 Sum of electronic and zero-point Energies=           -705.643118
 Sum of electronic and thermal Energies=              -705.643118
 Sum of electronic and thermal Enthalpies=            -705.643118
 Sum of electronic and thermal Free Energies=         -705.643118

                     E (Thermal)             CV                S
                      KCal/Mol        Cal/Mol-Kelvin    Cal/Mol-Kelvin
 Total                   77.709              5.962            -32.422
 Electronic               0.000              0.000              0.000
 Translational            0.000              2.981            -22.361
 Rotational               0.000              2.981            -10.061
 Vibrational             77.709              0.000              0.000

 Optimization completed.
    -- Stationary point found.
 Normal termination of Gaussian 16 at Sun Oct 13 21:42:18 2019.
