 Gaussian 16, Revision A.03,
 Gaussian 16:  ES64L-G16RevA.03 25-Dec-2016

 -------------------------------------------------------------------
 #P opt freq m062x/6-311++g(d,p) geom=connectivity temperature=0.001
 -------------------------------------------------------------------

 -------------------
 Title Card Required
 -------------------
 Symbolic Z-matrix:
 Charge =  1 Multiplicity = 1

 SCF Done:  E(RM062X) =  -706.033878865     A.U. after   15 cycles
 SCF Done:  E(RM062X) =  -706.068231186     A.U. after   13 cycles
 SCF Done:  E(RM062X) =  -706.076925033     A.U. after   12 cycles
 SCF Done:  E(RM062X) =  -706.082552859     A.U. after   12 cycles
 SCF Done:  E(RM062X) =  -706.082997269     A.U. after   11 cycles
 SCF Done:  E(RM062X) =  -706.083076840     A.U. after   11 cycles
 SCF Done:  E(RM062X) =  -706.083128550     A.U. after   11 cycles
 SCF Done:  E(RM062X) =  -706.083232321     A.U. after   12 cycles
 SCF Done:  E(RM062X) =  -706.083588622     A.U. after   12 cycles
 SCF Done:  E(RM062X) =  -706.067496392     A.U. after   13 cycles
 SCF Done:  E(RM062X) =  -706.091346276     A.U. after   12 cycles
 SCF Done:  E(RM062X) =  -706.091688507     A.U. after   12 cycles
 SCF Done:  E(RM062X) =  -706.091879663     A.U. after   11 cycles
 SCF Done:  E(RM062X) =  -706.091931971     A.U. after   11 cycles
 SCF Done:  E(RM062X) =  -706.091973437     A.U. after   11 cycles
 SCF Done:  E(RM062X) =  -706.091982740     A.U. after   11 cycles
 SCF Done:  E(RM062X) =  -706.091984742     A.U. after   11 cycles
 SCF Done:  E(RM062X) =  -706.091984843     A.U. after    7 cycles
 SCF Done:  E(RM062X) =  -706.091985116     A.U. after    9 cycles
 Optimization completed.
    -- Stationary point found.
 Normal termination of Gaussian 16 at Sun Oct 13 21:43:46 2019.

 ----------------------------------------------------------------------
 #P Geom=AllCheck Guess=TCheck SCRF=Check GenChk RM062X/6-311++G(d,p) F
 req
 ----------------------------------------------------------------------

 Structure from the checkpoint file:  "23_p.chk"
 -------------------
 Title Card Required
 -------------------
 Charge =  1 Multiplicity = 1

                         Standard orientation:
 ---------------------------------------------------------------------
 Center     Atomic      Atomic             Coordinates (Angstroms)
 Number     Number       Type             X           Y           Z
 ---------------------------------------------------------------------
      1          8           0       -1.671040    0.448155   -1.093029
      2         16           0       -0.700230    0.046520   -0.111775
      3          6           0        0.483879    1.313862    0.407418
      4          6           0        1.829938    0.743301   -0.059379
      5          6           0        1.764973   -0.783397    0.117350
      6          6           0        0.467289   -1.248172   -0.548069
      7          8           0       -1.330991   -0.547142    1.222133
      8          1           0        0.170268    2.245420   -0.063969
      9          1           0        0.405103    1.379433    1.494029
     10          1           0        1.998110    0.997156   -1.108151
     11          1           0        2.635966    1.183268    0.526119
     12          1           0        2.615246   -1.276864   -0.351751
     13          1           0        1.760300   -1.051188    1.176362
     14          1           0        0.510138   -1.211245   -1.640429
     15          1           0        0.054907   -2.198835   -0.211450
     16          1           0       -2.206585   -0.173119    1.430887
 ---------------------------------------------------------------------

 SCF Done:  E(RM062X) =  -706.091985116     A.U. after    1 cycles

 The electronic state is 1-A.
 Alpha  occ. eigenvalues --  -90.31869 -19.89547 -19.84376 -10.78079 -10.78069
 Alpha  occ. eigenvalues --  -10.73921 -10.73884  -8.66642  -6.58902  -6.58651
 Alpha  occ. eigenvalues --   -6.58536  -1.47084  -1.37881  -1.17134  -1.05297
 Alpha  occ. eigenvalues --   -1.03304  -0.91671  -0.88346  -0.83797  -0.79562
 Alpha  occ. eigenvalues --   -0.76669  -0.74730  -0.72376  -0.72104  -0.67962
 Alpha  occ. eigenvalues --   -0.65425  -0.65102  -0.63511  -0.61785  -0.60293
 Alpha  occ. eigenvalues --   -0.59324  -0.56650
 Alpha virt. eigenvalues --   -0.16433  -0.14574  -0.13768  -0.11358  -0.10970
 Alpha virt. eigenvalues --   -0.10671  -0.10410  -0.09595  -0.08454  -0.08305
 Alpha virt. eigenvalues --   -0.07862  -0.07706  -0.06061  -0.04333  -0.03470

 Mulliken charges:
               1
     1  O   -0.060214
     2  S    0.501104
     3  C   -0.606305
     4  C   -0.356183
     5  C   -0.324628
     6  C   -0.598530
     7  O   -0.144060
     8  H    0.296560
     9  H    0.279589
    10  H    0.244586
    11  H    0.266687
    12  H    0.266841
    13  H    0.253002
    14  H    0.304100
    15  H    0.304685
    16  H    0.372767
 Sum of Mulliken charges =   1.00000

 Dipole moment (field-independent basis, Debye):
    X=              1.7300    Y=              0.0823    Z=              1.7853  Tot=              2.4874
 Quadrupole moment (field-independent basis, Debye-Ang):
   XX=            -35.8222   YY=            -39.4166   ZZ=            -44.4405
   XY=              0.4645   XZ=             -6.6877   YZ=              3.8602

  Exact polarizability:  72.368  -0.845  61.931   0.802   0.159  58.491
 Approx polarizability:  84.919  -2.287  74.866   3.810  -2.542  78.127

                      1                      2                      3
                      A                      A                      A
 Frequencies --     53.1886               145.8512               242.2739
 Red. masses --      2.8565                 1.5222                 1.8231
 Frc consts  --      0.0048                 0.0191                 0.0630
 IR Inten    --      1.9105                99.0000                23.5630

                      4                      5                      6
                      A                      A                      A
 Frequencies --    304.9790               344.2707               357.4003
 Red. masses --      2.5175                 2.7156                 4.2009
 Frc consts  --      0.1380                 0.1896                 0.3162
 IR Inten    --      5.6334                13.3131                38.2336

                      7                      8                      9
                      A                      A                      A
 Frequencies --    385.9162               507.6657               509.4012
 Red. masses --      3.8062                 3.8877                 2.4928
 Frc consts  --      0.3340                 0.5903                 0.3811
 IR Inten    --     12.2404                16.2867                12.0063

                     10                     11                     12
                      A                      A                      A
 Frequencies --    635.8034               725.5368               798.6411
 Red. masses --      3.6202                 2.8509                 1.4659
 Frc consts  --      0.8622                 0.8842                 0.5509
 IR Inten    --      0.4027                28.6320                 7.9487

                     13                     14                     15
                      A                      A                      A
 Frequencies --    857.7733               888.5749               918.2779
 Red. masses --      4.1375                 2.5530                 1.6752
 Frc consts  --      1.7936                 1.1877                 0.8323
 IR Inten    --    150.1436                 1.2888                54.3367

                     16                     17                     18
                      A                      A                      A
 Frequencies --    926.5514               976.6855              1031.3544
 Red. masses --      2.7227                 1.9298                 1.4214
 Frc consts  --      1.3772                 1.0846                 0.8908
 IR Inten    --     22.1661                 2.0645                 0.0647

                     19                     20                     21
                      A                      A                      A
 Frequencies --   1053.7797              1105.9177              1132.7442
 Red. masses --      1.8187                 1.2332                 1.1729
 Frc consts  --      1.1899                 0.8886                 0.8867
 IR Inten    --      2.6709                46.8501                 9.8484

                     22                     23                     24
                      A                      A                      A
 Frequencies --   1171.5328              1223.7574              1235.5801
 Red. masses --      1.3973                 1.3831                 1.4134
 Frc consts  --      1.1299                 1.2204                 1.2714
 IR Inten    --      4.2674                 1.3315                 2.8160

                     25                     26                     27
                      A                      A                      A
 Frequencies --   1287.0090              1300.2238              1346.8071
 Red. masses --      1.4837                 1.3733                 2.2560
 Frc consts  --      1.4480                 1.3679                 2.4110
 IR Inten    --     39.6812                12.6378               106.4545

                     28                     29                     30
                      A                      A                      A
 Frequencies --   1355.8358              1380.7018              1446.3930
 Red. masses --      1.6349                 1.3432                 1.0911
 Frc consts  --      1.7708                 1.5087                 1.3449
 IR Inten    --     52.8996                 2.6041                19.4032

                     31                     32                     33
                      A                      A                      A
 Frequencies --   1448.0652              1493.4713              1503.5401
 Red. masses --      1.0816                 1.0795                 1.0955
 Frc consts  --      1.3363                 1.4186                 1.4591
 IR Inten    --      7.5726                15.4883                 4.5571

                     34                     35                     36
                      A                      A                      A
 Frequencies --   3091.8167              3096.0697              3102.5164
 Red. masses --      1.0652                 1.0644                 1.0615
 Frc consts  --      5.9993                 6.0113                 6.0200
 IR Inten    --      9.0315                 5.3677                 2.1854

                     37                     38                     39
                      A                      A                      A
 Frequencies --   3105.2682              3159.1336              3163.9542
 Red. masses --      1.0577                 1.1026                 1.1055
 Frc consts  --      6.0094                 6.4836                 6.5202
 IR Inten    --      8.5450                 2.0030                 3.1365

                     40                     41                     42
                      A                      A                      A
 Frequencies --   3177.1879              3179.3722              3737.8281
 Red. masses --      1.1070                 1.1106                 1.0669
 Frc consts  --      6.5841                 6.6144                 8.7820
 IR Inten    --      7.8078                14.2562               351.1311

 - Thermochemistry -
 -------------------
 Temperature     0.001 Kelvin.  Pressure   1.00000 Atm.
 Atom     1 has atomic number  8 and mass  15.99491

 Molecular mass:   121.03233 amu.
 Principal axes and moments of inertia in atomic units:
                           1         2         3
     Eigenvalues --   497.30119 915.98521 992.88034
           X            0.99975   0.00753  -0.02082
           Y           -0.00472   0.99128   0.13168
           Z            0.02163  -0.13155   0.99107
 This molecule is an asymmetric top.
 Rotational symmetry number  1.
 Warning -- assumption of classical behavior for rotation
           may cause significant error
 Rotational temperatures (Kelvin)      0.17417     0.09456     0.08724
 Rotational constants (GHZ):           3.62907     1.97027     1.81768
 Zero-point vibrational energy     352352.0 (Joules/Mol)
                                   84.21415 (Kcal/Mol)
 Vibrational temperatures:     76.53   209.85   348.58   438.80   495.33
          (Kelvin)            514.22   555.25   730.42   732.91   914.78
                             1043.89  1149.07  1234.14  1278.46  1321.20
                             1333.10  1405.23  1483.89  1516.15  1591.17
                             1629.77  1685.57  1760.71  1777.72  1851.72
                             1870.73  1937.75  1950.75  1986.52  2081.04
                             2083.44  2148.77  2163.26  4448.43  4454.55
                             4463.83  4467.79  4545.29  4552.22  4571.26
                             4574.41  5377.90

 Zero-point correction=                           0.134204 (Hartree/Particle)
 Thermal correction to Energy=                    0.134204
 Thermal correction to Enthalpy=                  0.134204
 Thermal correction to Gibbs Free Energy=         0.134204
 Sum of electronic and zero-point Energies=           -705.957781
 Sum of electronic and thermal Energies=              -705.957781
 Sum of electronic and thermal Enthalpies=            -705.957781
 Sum of electronic and thermal Free Energies=         -705.957781

                     E (Thermal)             CV                S
                      KCal/Mol        Cal/Mol-Kelvin    Cal/Mol-Kelvin
 Total                   84.214              5.962            -32.305
 Electronic               0.000              0.000              0.000
 Translational            0.000              2.981            -22.337
 Rotational               0.000              2.981             -9.969
 Vibrational             84.214              0.000              0.000

                           ! Non-Optimized Parameters !
 Normal termination of Gaussian 16 at Sun Oct 13 21:44:54 2019.
