 Gaussian 16, Revision A.03,
 Gaussian 16:  ES64L-G16RevA.03 25-Dec-2016

 -------------------------------------------------------------------
 #P opt freq m062x/6-311++g(d,p) geom=connectivity temperature=0.001
 -------------------------------------------------------------------

 -------------------
 Title Card Required
 -------------------
 Symbolic Z-matrix:
 Charge =  0 Multiplicity = 1

 SCF Done:  E(RM062X) =  -1010.52258290     A.U. after   17 cycles
 SCF Done:  E(RM062X) =  -1010.55914431     A.U. after   15 cycles
 SCF Done:  E(RM062X) =  -1010.56578274     A.U. after   14 cycles
 SCF Done:  E(RM062X) =  -1010.56707182     A.U. after   13 cycles
 SCF Done:  E(RM062X) =  -1010.56711130     A.U. after   12 cycles
 SCF Done:  E(RM062X) =  -1010.56711386     A.U. after   10 cycles
 SCF Done:  E(RM062X) =  -1010.56711420     A.U. after   10 cycles
 Optimization completed.
    -- Stationary point found.
 Normal termination of Gaussian 16 at Sun Oct 13 21:44:13 2019.

 ----------------------------------------------------------------------
 #P Geom=AllCheck Guess=TCheck SCRF=Check GenChk RM062X/6-311++G(d,p) F
 req
 ----------------------------------------------------------------------

 Structure from the checkpoint file:  "24.chk"
 -------------------
 Title Card Required
 -------------------
 Charge =  0 Multiplicity = 1

                         Standard orientation:
 ---------------------------------------------------------------------
 Center     Atomic      Atomic             Coordinates (Angstroms)
 Number     Number       Type             X           Y           Z
 ---------------------------------------------------------------------
      1          8           0        0.000089    2.315355   -1.250320
      2         16           0        0.000001    1.576109    0.000262
      3          6           0        1.287622    0.331433   -0.000205
      4          6           0        0.740033   -0.949381    0.000256
      5          6           0        1.599952   -2.041826    0.000324
      6          6           0        2.975109   -1.821083   -0.000088
      7          6           0        3.497613   -0.528931   -0.000650
      8          6           0        2.646610    0.574687   -0.000709
      9          6           0       -0.740037   -0.949379    0.000232
     10          6           0       -1.287622    0.331436   -0.000290
     11          6           0       -2.646610    0.574693   -0.000764
     12          6           0       -3.497616   -0.528923   -0.000671
     13          6           0       -2.975115   -1.821077   -0.000077
     14          6           0       -1.599959   -2.041823    0.000346
     15          8           0       -0.000075    2.313605    1.251907
     16          1           0        1.209398   -3.052580    0.000668
     17          1           0        3.649843   -2.668577   -0.000014
     18          1           0        4.570284   -0.380656   -0.001047
     19          1           0        3.031143    1.587616   -0.001188
     20          1           0       -3.031140    1.587623   -0.001253
     21          1           0       -4.570286   -0.380645   -0.001058
     22          1           0       -3.649851   -2.668569    0.000029
     23          1           0       -1.209406   -3.052578    0.000743
 ---------------------------------------------------------------------

 SCF Done:  E(RM062X) =  -1010.56711420     A.U. after    1 cycles

 The electronic state is 1-A.
 Alpha  occ. eigenvalues --  -90.10543 -19.62113 -19.62110 -10.59318 -10.59285
 Alpha  occ. eigenvalues --  -10.59216 -10.59203 -10.58139 -10.58139 -10.57803
 Alpha  occ. eigenvalues --  -10.57802 -10.57596 -10.57596 -10.57401 -10.57401
 Alpha  occ. eigenvalues --   -8.44906  -6.37088  -6.37049  -6.37024  -1.24232
 Alpha  occ. eigenvalues --   -1.13008  -1.02728  -0.99029  -0.92688  -0.89705
 Alpha  occ. eigenvalues --   -0.87831  -0.85032  -0.79611  -0.75064  -0.70996
 Alpha  occ. eigenvalues --   -0.69795  -0.69251  -0.62535  -0.61913  -0.58596
 Alpha  occ. eigenvalues --   -0.56651  -0.56446  -0.54617  -0.54034  -0.53582
 Alpha  occ. eigenvalues --   -0.52839  -0.52227  -0.49534  -0.46920  -0.46896
 Alpha  occ. eigenvalues --   -0.46659  -0.44497  -0.43453  -0.40953  -0.40379
 Alpha  occ. eigenvalues --   -0.39435  -0.37359  -0.36033  -0.33893  -0.33588
 Alpha  occ. eigenvalues --   -0.30488
 Alpha virt. eigenvalues --   -0.04898  -0.03289  -0.01236  -0.00325  -0.00058
 Alpha virt. eigenvalues --    0.00530   0.01586   0.01962   0.03203   0.03718
 Alpha virt. eigenvalues --    0.03857   0.04259   0.04460   0.06557   0.06579

 Mulliken charges:
               1
     1  O   -0.026890
     2  S    0.969109
     3  C   -1.690788
     4  C    1.696200
     5  C   -0.148088
     6  C   -0.547488
     7  C   -0.097587
     8  C   -0.491079
     9  C    1.696201
    10  C   -1.690789
    11  C   -0.491085
    12  C   -0.097589
    13  C   -0.547487
    14  C   -0.148087
    15  O   -0.026605
    16  H    0.146542
    17  H    0.220464
    18  H    0.210754
    19  H    0.243266
    20  H    0.243265
    21  H    0.210754
    22  H    0.220464
    23  H    0.146542
 Sum of Mulliken charges =  -0.00000

 Dipole moment (field-independent basis, Debye):
    X=             -0.0000    Y=             -5.8656    Z=             -0.0033  Tot=              5.8656
 Quadrupole moment (field-independent basis, Debye-Ang):
   XX=            -69.3924   YY=            -94.7119   ZZ=           -105.2470
   XY=             -0.0001   XZ=              0.0004   YZ=             -0.0072

  Exact polarizability: 216.501   0.000 167.390  -0.000  -0.016  88.029
 Approx polarizability: 257.170   0.000 234.325  -0.001  -0.033 128.424

                      1                      2                      3
                      A                      A                      A
 Frequencies --     73.5982                95.2663               105.0637
 Red. masses --      4.6999                 6.0606                 6.9191
 Frc consts  --      0.0150                 0.0324                 0.0450
 IR Inten    --      3.1692                 0.0000                 0.0695

                      4                      5                      6
                      A                      A                      A
 Frequencies --    161.6601               193.4122               238.2416
 Red. masses --      5.0822                 5.0898                 8.7284
 Frc consts  --      0.0783                 0.1122                 0.2919
 IR Inten    --      0.0000                 0.6200                 9.1230

                      7                      8                      9
                      A                      A                      A
 Frequencies --    301.6034               332.5980               357.3298
 Red. masses --      4.3259                 5.4277                 9.3877
 Frc consts  --      0.2318                 0.3538                 0.7062
 IR Inten    --      0.0000                 2.1571                 7.5550

                     10                     11                     12
                      A                      A                      A
 Frequencies --    402.1478               421.8454               446.0663
 Red. masses --      6.7454                 3.4177                 3.8380
 Frc consts  --      0.6427                 0.3583                 0.4499
 IR Inten    --      0.8695                 7.4779                 0.0000

                     13                     14                     15
                      A                      A                      A
 Frequencies --    481.8786               542.2174               559.2932
 Red. masses --      6.0120                 4.9017                 3.4968
 Frc consts  --      0.8225                 0.8491                 0.6445
 IR Inten    --      6.3084                18.0900                 0.0000

                     16                     17                     18
                      A                      A                      A
 Frequencies --    562.6618               579.5769               629.1017
 Red. masses --     14.4633                10.4683                 7.0166
 Frc consts  --      2.6978                 2.0718                 1.6361
 IR Inten    --     52.0029                50.7779                10.8754

                     19                     20                     21
                      A                      A                      A
 Frequencies --    711.3969               715.7304               731.5254
 Red. masses --      6.4804                 4.9662                 2.4824
 Frc consts  --      1.9323                 1.4989                 0.7827
 IR Inten    --      3.2635                12.3458                 0.0002

                     22                     23                     24
                      A                      A                      A
 Frequencies --    739.8708               775.2531               777.1793
 Red. masses --      7.7107                 1.2327                 6.0148
 Frc consts  --      2.4869                 0.4365                 2.1405
 IR Inten    --     45.3954               117.6415                 1.2429

                     25                     26                     27
                      A                      A                      A
 Frequencies --    792.9758               892.4523               895.2772
 Red. masses --      1.6762                 1.3565                 1.2787
 Frc consts  --      0.6210                 0.6366                 0.6039
 IR Inten    --      0.0000                 0.0000                 0.7585

                     28                     29                     30
                      A                      A                      A
 Frequencies --    973.1982               974.5448              1013.4748
 Red. masses --      1.3891                 1.3610                 1.3075
 Frc consts  --      0.7752                 0.7616                 0.7912
 IR Inten    --      0.0000                 0.6717                 0.0000

                     31                     32                     33
                      A                      A                      A
 Frequencies --   1015.8203              1023.0179              1056.3027
 Red. masses --      1.2986                 7.2519                 2.4152
 Frc consts  --      0.7895                 4.4716                 1.5878
 IR Inten    --      0.0228                 1.0795                 0.3091

                     34                     35                     36
                      A                      A                      A
 Frequencies --   1059.0209              1066.8391              1107.8410
 Red. masses --      2.6503                 3.8925                 2.4885
 Frc consts  --      1.7513                 2.6102                 1.7995
 IR Inten    --      3.1883                18.9956                12.2100

                     37                     38                     39
                      A                      A                      A
 Frequencies --   1144.8119              1161.0404              1175.9335
 Red. masses --      2.2371                 1.4351                 3.8333
 Frc consts  --      1.7274                 1.1398                 3.1231
 IR Inten    --     50.6735                 2.3535               207.0464

                     40                     41                     42
                      A                      A                      A
 Frequencies --   1181.8345              1186.4437              1252.1145
 Red. masses --      1.2281                 1.1939                 2.0049
 Frc consts  --      1.0107                 0.9901                 1.8520
 IR Inten    --      0.0369                 8.3825                 0.1314

                     43                     44                     45
                      A                      A                      A
 Frequencies --   1303.1831              1320.3964              1322.6122
 Red. masses --      1.6155                 3.7089                 1.9127
 Frc consts  --      1.6165                 3.8098                 1.9713
 IR Inten    --      6.1284                 1.2470                 0.1639

                     46                     47                     48
                      A                      A                      A
 Frequencies --   1328.2756              1369.0693              1476.3285
 Red. masses --     20.4270                 4.2838                 2.3504
 Frc consts  --     21.2340                 4.7307                 3.0183
 IR Inten    --    225.2962                 0.0002                 5.0763

                     49                     50                     51
                      A                      A                      A
 Frequencies --   1491.0634              1511.8139              1529.1087
 Red. masses --      2.3285                 2.5582                 3.1904
 Frc consts  --      3.0502                 3.4450                 4.3952
 IR Inten    --     40.1222                 1.7618                 5.0307

                     52                     53                     54
                      A                      A                      A
 Frequencies --   1647.7173              1665.6338              1671.7478
 Red. masses --      5.9132                 7.4713                 6.9012
 Frc consts  --      9.4588                12.2125                11.3637
 IR Inten    --      5.8068                 0.1946                15.4920

                     55                     56                     57
                      A                      A                      A
 Frequencies --   1672.2339              3205.4705              3207.4360
 Red. masses --      6.9932                 1.0874                 1.0870
 Frc consts  --     11.5218                 6.5831                 6.5889
 IR Inten    --      0.0006                 2.1687                 0.2517

                     58                     59                     60
                      A                      A                      A
 Frequencies --   3215.1376              3216.8921              3221.7171
 Red. masses --      1.0901                 1.0902                 1.0946
 Frc consts  --      6.6394                 6.6471                 6.6941
 IR Inten    --      0.4594                 1.6266                 0.0834

                     61                     62                     63
                      A                      A                      A
 Frequencies --   3223.1716              3232.0883              3232.4199
 Red. masses --      1.0948                 1.0983                 1.0984
 Frc consts  --      6.7010                 6.7600                 6.7619
 IR Inten    --      3.6243                 8.7268                 2.5101

 - Thermochemistry -
 -------------------
 Temperature     0.001 Kelvin.  Pressure   1.00000 Atm.
 Atom     1 has atomic number  8 and mass  15.99491

 Molecular mass:   216.02450 amu.
 Principal axes and moments of inertia in atomic units:
                           1         2         3
     Eigenvalues --  1991.084383317.536584950.99140
           X            1.00000  -0.00000  -0.00000
           Y            0.00000   1.00000  -0.00002
           Z            0.00000   0.00002   1.00000
 This molecule is an asymmetric top.
 Rotational symmetry number  1.
 Warning -- assumption of classical behavior for rotation
           may cause significant error
 Rotational temperatures (Kelvin)      0.04350     0.02611     0.01749
 Rotational constants (GHZ):           0.90641     0.54400     0.36452
 Zero-point vibrational energy     448426.0 (Joules/Mol)
                                  107.17639 (Kcal/Mol)
 Vibrational temperatures:    105.89   137.07   151.16   232.59   278.28
          (Kelvin)            342.78   433.94   478.53   514.12   578.60
                              606.94   641.79   693.32   780.13   804.70
                              809.54   833.88   905.14  1023.54  1029.78
                             1052.50  1064.51  1115.42  1118.19  1140.92
                             1284.04  1288.10  1400.22  1402.15  1458.16
                             1461.54  1471.89  1519.78  1523.69  1534.94
                             1593.94  1647.13  1670.48  1691.91  1700.40
                             1707.03  1801.51  1874.99  1899.76  1902.94
                             1911.09  1969.79  2124.11  2145.31  2175.16
                             2200.05  2370.70  2396.48  2405.27  2405.97
                             4611.96  4614.79  4625.87  4628.39  4635.33
                             4637.43  4650.25  4650.73

 Zero-point correction=                           0.170796 (Hartree/Particle)
 Thermal correction to Energy=                    0.170796
 Thermal correction to Enthalpy=                  0.170796
 Thermal correction to Gibbs Free Energy=         0.170797
 Sum of electronic and zero-point Energies=          -1010.396318
 Sum of electronic and thermal Energies=             -1010.396318
 Sum of electronic and thermal Enthalpies=           -1010.396318
 Sum of electronic and thermal Free Energies=        -1010.396318

                     E (Thermal)             CV                S
                      KCal/Mol        Cal/Mol-Kelvin    Cal/Mol-Kelvin
 Total                  107.176              5.962            -26.325
 Electronic               0.000              0.000              0.000
 Translational            0.000              2.981            -20.610
 Rotational               0.000              2.981             -5.715
 Vibrational            107.176              0.000              0.000

                           ! Non-Optimized Parameters !
 Normal termination of Gaussian 16 at Sun Oct 13 21:49:35 2019.
