 Gaussian 16, Revision A.03,
 Gaussian 16:  ES64L-G16RevA.03 25-Dec-2016

 -------------------------------------------------------------------
 #P opt freq m062x/6-311++g(d,p) geom=connectivity temperature=0.001
 -------------------------------------------------------------------

 -------------------
 Title Card Required
 -------------------
 Symbolic Z-matrix:
 Charge =  1 Multiplicity = 1

 SCF Done:  E(RM062X) =  -1010.86132642     A.U. after   18 cycles
 SCF Done:  E(RM062X) =  -1010.89199643     A.U. after   15 cycles
 SCF Done:  E(RM062X) =  -1010.89646710     A.U. after   15 cycles
 SCF Done:  E(RM062X) =  -1010.89883724     A.U. after   14 cycles
 SCF Done:  E(RM062X) =  -1010.89948063     A.U. after   15 cycles
 SCF Done:  E(RM062X) =  -1010.89992778     A.U. after   14 cycles
 SCF Done:  E(RM062X) =  -1010.90055894     A.U. after   14 cycles
 SCF Done:  E(RM062X) =  -1010.90115341     A.U. after   16 cycles
 SCF Done:  E(RM062X) =  -1010.90130837     A.U. after   14 cycles
 SCF Done:  E(RM062X) =  -1010.90132842     A.U. after   12 cycles
 SCF Done:  E(RM062X) =  -1010.90133663     A.U. after   12 cycles
 SCF Done:  E(RM062X) =  -1010.90133826     A.U. after   12 cycles
 SCF Done:  E(RM062X) =  -1010.90133875     A.U. after   11 cycles
 SCF Done:  E(RM062X) =  -1010.90133892     A.U. after   11 cycles
 Optimization completed.
    -- Stationary point found.
 Normal termination of Gaussian 16 at Sun Oct 13 21:50:00 2019.

 ----------------------------------------------------------------------
 #P Geom=AllCheck Guess=TCheck SCRF=Check GenChk RM062X/6-311++G(d,p) F
 req
 ----------------------------------------------------------------------

 Structure from the checkpoint file:  "24_p.chk"
 -------------------
 Title Card Required
 -------------------
 Charge =  1 Multiplicity = 1

                         Standard orientation:
 ---------------------------------------------------------------------
 Center     Atomic      Atomic             Coordinates (Angstroms)
 Number     Number       Type             X           Y           Z
 ---------------------------------------------------------------------
      1          8           0        0.149126    2.146021   -1.349310
      2         16           0        0.003566    1.475963    0.087030
      3          6           0        1.294238    0.291528    0.066624
      4          6           0        0.734672   -0.987588   -0.007128
      5          6           0        1.602527   -2.067328   -0.041705
      6          6           0        2.978101   -1.830504    0.000281
      7          6           0        3.499925   -0.540148    0.074388
      8          6           0        2.649372    0.562361    0.105213
      9          6           0       -0.746666   -0.983867   -0.025331
     10          6           0       -1.299499    0.299136    0.028088
     11          6           0       -2.653407    0.572775    0.083481
     12          6           0       -3.509409   -0.525945    0.052640
     13          6           0       -2.993521   -1.818563   -0.019269
     14          6           0       -1.618691   -2.060614   -0.052313
     15          8           0       -0.066072    2.478529    1.117567
     16          1           0        1.224703   -3.080592   -0.099254
     17          1           0        3.657642   -2.673688   -0.024259
     18          1           0        4.571213   -0.390138    0.108072
     19          1           0        3.029177    1.575289    0.163013
     20          1           0       -3.032412    1.585332    0.155686
     21          1           0       -4.579887   -0.371182    0.090954
     22          1           0       -3.676420   -2.659098   -0.039405
     23          1           0       -1.244200   -3.076085   -0.090100
     24          1           0       -0.297146    3.010890   -1.393068
 ---------------------------------------------------------------------

 SCF Done:  E(RM062X) =  -1010.90133892     A.U. after    1 cycles

 The electronic state is 1-A.
 Alpha  occ. eigenvalues --  -90.30371 -19.87025 -19.82073 -10.75245 -10.75208
 Alpha  occ. eigenvalues --  -10.74137 -10.74089 -10.72895 -10.72771 -10.71293
 Alpha  occ. eigenvalues --  -10.71233 -10.71062 -10.71032 -10.70715 -10.70602
 Alpha  occ. eigenvalues --   -8.64973  -6.57221  -6.57031  -6.56943  -1.44880
 Alpha  occ. eigenvalues --   -1.35181  -1.18863  -1.13305  -1.08692  -1.04837
 Alpha  occ. eigenvalues --   -1.02231  -0.99229  -0.97638  -0.89608  -0.87354
 Alpha  occ. eigenvalues --   -0.86065  -0.83887  -0.81487  -0.77651  -0.76794
 Alpha  occ. eigenvalues --   -0.74730  -0.71717  -0.70979  -0.69412  -0.67704
 Alpha  occ. eigenvalues --   -0.67276  -0.67010  -0.65882  -0.64778  -0.63824
 Alpha  occ. eigenvalues --   -0.60972  -0.60015  -0.59572  -0.58534  -0.57961
 Alpha  occ. eigenvalues --   -0.57328  -0.54611  -0.51257  -0.49189  -0.47890
 Alpha  occ. eigenvalues --   -0.44504
 Alpha virt. eigenvalues --   -0.21396  -0.17082  -0.14218  -0.13604  -0.10272
 Alpha virt. eigenvalues --   -0.10146  -0.09624  -0.09405  -0.08390  -0.08252
 Alpha virt. eigenvalues --   -0.07695  -0.07501  -0.07083  -0.05887  -0.05562

 Mulliken charges:
               1
     1  O   -0.024013
     2  S    0.467594
     3  C   -1.187266
     4  C    1.602643
     5  C   -0.084654
     6  C   -0.508704
     7  C   -0.113398
     8  C   -0.344627
     9  C    1.445059
    10  C   -1.477093
    11  C   -0.423377
    12  C   -0.103125
    13  C   -0.513983
    14  C   -0.115978
    15  O    0.062269
    16  H    0.184110
    17  H    0.264140
    18  H    0.250900
    19  H    0.283317
    20  H    0.264835
    21  H    0.250688
    22  H    0.263762
    23  H    0.183076
    24  H    0.373825
 Sum of Mulliken charges =   1.00000

 Dipole moment (field-independent basis, Debye):
    X=             -0.5802    Y=             -0.8303    Z=             -1.5918  Tot=              1.8868
 Quadrupole moment (field-independent basis, Debye-Ang):
   XX=            -47.3855   YY=            -62.5907   ZZ=            -97.1984
   XY=             -2.2330   XZ=              1.4629   YZ=             -6.6149

  Exact polarizability: 214.975  -0.738 166.472  -0.134   2.943  82.352
 Approx polarizability: 260.194  -1.003 236.520  -1.220   8.656 119.070

                      1                      2                      3
                      A                      A                      A
 Frequencies --     75.4067                92.0278               103.1672
 Red. masses --      4.2942                 5.9410                 5.5054
 Frc consts  --      0.0144                 0.0296                 0.0345
 IR Inten    --      1.6539                 1.0389                 4.7072

                      4                      5                      6
                      A                      A                      A
 Frequencies --    154.9751               193.7121               223.4688
 Red. masses --      4.2689                 4.8849                 2.1498
 Frc consts  --      0.0604                 0.1080                 0.0633
 IR Inten    --      7.9743                 0.6207                63.5765

                      7                      8                      9
                      A                      A                      A
 Frequencies --    231.6994               299.6388               335.3447
 Red. masses --      2.5247                 4.0613                 4.1864
 Frc consts  --      0.0799                 0.2148                 0.2774
 IR Inten    --      9.2423                 0.5578                 8.4024

                     10                     11                     12
                      A                      A                      A
 Frequencies --    363.8313               404.3025               421.8586
 Red. masses --      5.1008                 6.3387                 3.4519
 Frc consts  --      0.3978                 0.6105                 0.3619
 IR Inten    --     23.3638                 3.8262                10.4326

                     13                     14                     15
                      A                      A                      A
 Frequencies --    437.4243               475.2496               509.9223
 Red. masses --      3.7206                 6.5635                 5.9755
 Frc consts  --      0.4194                 0.8734                 0.9154
 IR Inten    --      1.0026                16.0521                55.9970

                     16                     17                     18
                      A                      A                      A
 Frequencies --    528.5227               543.2447               557.3167
 Red. masses --      5.6156                 3.3522                 9.0492
 Frc consts  --      0.9242                 0.5829                 1.6560
 IR Inten    --     27.7904                 0.1092                42.9901

                     19                     20                     21
                      A                      A                      A
 Frequencies --    622.6076               702.7697               703.2302
 Red. masses --      7.0237                 5.6408                 5.1486
 Frc consts  --      1.6041                 1.6414                 1.5001
 IR Inten    --      3.8010                 5.6192                 4.7222

                     22                     23                     24
                      A                      A                      A
 Frequencies --    721.2083               741.0910               769.8304
 Red. masses --      3.4366                 7.2387                 5.9952
 Frc consts  --      1.0532                 2.3424                 2.0934
 IR Inten    --      0.5052                40.5005                 1.0830

                     25                     26                     27
                      A                      A                      A
 Frequencies --    783.3131               789.3769               873.8582
 Red. masses --      1.2298                 1.3948                14.1744
 Frc consts  --      0.4446                 0.5121                 6.3773
 IR Inten    --    126.3891                 1.2579               266.7339

                     28                     29                     30
                      A                      A                      A
 Frequencies --    901.0032               902.0152               987.4412
 Red. masses --      1.3230                 1.2906                 1.3727
 Frc consts  --      0.6328                 0.6187                 0.7886
 IR Inten    --      0.4522                 0.8630                 0.1333

                     31                     32                     33
                      A                      A                      A
 Frequencies --    990.5809              1015.3253              1033.1671
 Red. masses --      1.3620                 7.3317                 1.3365
 Frc consts  --      0.7874                 4.4531                 0.8406
 IR Inten    --      0.4341                 0.5072                 0.0742

                     34                     35                     36
                      A                      A                      A
 Frequencies --   1035.2667              1049.9461              1054.6103
 Red. masses --      1.3329                 2.9870                 3.1915
 Frc consts  --      0.8417                 1.9401                 2.0914
 IR Inten    --      0.1545                 6.4232                 4.2012

                     37                     38                     39
                      A                      A                      A
 Frequencies --   1065.7899              1089.9908              1123.1168
 Red. masses --      2.9540                 2.2646                 1.2471
 Frc consts  --      1.9770                 1.5852                 0.9268
 IR Inten    --     24.0804                31.5114                43.0895

                     40                     41                     42
                      A                      A                      A
 Frequencies --   1154.7018              1164.7990              1191.3280
 Red. masses --      1.7866                 1.4034                 1.2462
 Frc consts  --      1.4035                 1.1218                 1.0420
 IR Inten    --     11.7782                 3.1210                 5.1021

                     43                     44                     45
                      A                      A                      A
 Frequencies --   1198.1941              1244.6081              1306.8082
 Red. masses --      1.1260                 2.0782                 1.7740
 Frc consts  --      0.9524                 1.8967                 1.7850
 IR Inten    --      1.2604                 0.1695                 9.2221

                     46                     47                     48
                      A                      A                      A
 Frequencies --   1312.6610              1321.1954              1324.6962
 Red. masses --      8.6875                 3.1297                 1.8382
 Frc consts  --      8.8196                 3.2187                 1.9005
 IR Inten    --    227.0299                27.0700                 9.2646

                     49                     50                     51
                      A                      A                      A
 Frequencies --   1387.4152              1470.6979              1493.1147
 Red. masses --      4.1694                 2.3151                 2.2871
 Frc consts  --      4.7286                 2.9503                 3.0042
 IR Inten    --      5.1495                 1.3136                52.9100

                     52                     53                     54
                      A                      A                      A
 Frequencies --   1504.1752              1531.0534              1641.9187
 Red. masses --      2.4689                 3.1172                 5.6242
 Frc consts  --      3.2912                 4.3052                 8.9334
 IR Inten    --      3.6858                22.8086                20.5372

                     55                     56                     57
                      A                      A                      A
 Frequencies --   1652.6054              1663.8032              1664.9608
 Red. masses --      6.8618                 7.1086                 6.9920
 Frc consts  --     11.0415                11.5941                11.4198
 IR Inten    --     24.8762                 0.1207                10.9528

                     58                     59                     60
                      A                      A                      A
 Frequencies --   3218.8478              3219.8015              3223.1717
 Red. masses --      1.0895                 1.0896                 1.0923
 Frc consts  --      6.6511                 6.6551                 6.6859
 IR Inten    --      0.2364                 0.4923                 1.1595

                     61                     62                     63
                      A                      A                      A
 Frequencies --   3226.0318              3231.2804              3233.5261
 Red. masses --      1.0924                 1.0954                 1.0948
 Frc consts  --      6.6984                 6.7387                 6.7445
 IR Inten    --      3.1110                 0.1167                 3.4377

                     64                     65                     66
                      A                      A                      A
 Frequencies --   3241.3450              3241.8143              3745.0221
 Red. masses --      1.0982                 1.0984                 1.0664
 Frc consts  --      6.7982                 6.8014                 8.8119
 IR Inten    --      3.8179                 2.3147               324.4988

 - Thermochemistry -
 -------------------
 Temperature     0.001 Kelvin.  Pressure   1.00000 Atm.
 Atom     1 has atomic number  8 and mass  15.99491

 Molecular mass:   217.03233 amu.
 Principal axes and moments of inertia in atomic units:
                           1         2         3
     Eigenvalues --  2011.318113344.201294985.50280
           X            1.00000  -0.00252   0.00067
           Y            0.00253   0.99998  -0.00643
           Z           -0.00066   0.00644   0.99998
 This molecule is an asymmetric top.
 Rotational symmetry number  1.
 Warning -- assumption of classical behavior for rotation
           may cause significant error
 Rotational temperatures (Kelvin)      0.04306     0.02590     0.01737
 Rotational constants (GHZ):           0.89729     0.53966     0.36200
 Zero-point vibrational energy     476808.9 (Joules/Mol)
                                  113.96007 (Kcal/Mol)
 Vibrational temperatures:    108.49   132.41   148.43   222.97   278.71
          (Kelvin)            321.52   333.36   431.11   482.49   523.47
                              581.70   606.96   629.36   683.78   733.66
                              760.43   781.61   801.85   895.79  1011.13
                             1011.79  1037.66  1066.26  1107.61  1127.01
                             1135.74  1257.29  1296.34  1297.80  1420.71
                             1425.23  1460.83  1486.50  1489.52  1510.64
                             1517.35  1533.43  1568.25  1615.91  1661.36
                             1675.89  1714.06  1723.93  1790.71  1880.21
                             1888.63  1900.91  1905.94  1996.18  2116.01
                             2148.26  2164.17  2202.84  2362.35  2377.73
                             2393.84  2395.51  4631.20  4632.58  4637.43
                             4641.54  4649.09  4652.32  4663.57  4664.25
                             5388.25

 Zero-point correction=                           0.181607 (Hartree/Particle)
 Thermal correction to Energy=                    0.181607
 Thermal correction to Enthalpy=                  0.181607
 Thermal correction to Gibbs Free Energy=         0.181607
 Sum of electronic and zero-point Energies=          -1010.719732
 Sum of electronic and thermal Energies=             -1010.719732
 Sum of electronic and thermal Enthalpies=           -1010.719732
 Sum of electronic and thermal Free Energies=        -1010.719732

                     E (Thermal)             CV                S
                      KCal/Mol        Cal/Mol-Kelvin    Cal/Mol-Kelvin
 Total                  113.960              5.962            -26.286
 Electronic               0.000              0.000              0.000
 Translational            0.000              2.981            -20.596
 Rotational               0.000              2.981             -5.690
 Vibrational            113.960              0.000              0.000

 Optimization completed.
    -- Stationary point found.
 Normal termination of Gaussian 16 at Sun Oct 13 21:55:49 2019.
