 Gaussian 16, Revision A.03,
 Gaussian 16:  ES64L-G16RevA.03 25-Dec-2016

 -------------------------------------------------------------------
 #P opt freq m062x/6-311++g(d,p) geom=connectivity temperature=0.001
 -------------------------------------------------------------------

 -------------------
 Title Card Required
 -------------------
 Symbolic Z-matrix:
 Charge =  0 Multiplicity = 1

 SCF Done:  E(RM062X) =  -628.313106041     A.U. after   13 cycles
 SCF Done:  E(RM062X) =  -628.349659733     A.U. after   12 cycles
 SCF Done:  E(RM062X) =  -628.355823996     A.U. after   12 cycles
 SCF Done:  E(RM062X) =  -628.358427605     A.U. after   11 cycles
 SCF Done:  E(RM062X) =  -628.358614572     A.U. after   11 cycles
 SCF Done:  E(RM062X) =  -628.358632425     A.U. after    9 cycles
 SCF Done:  E(RM062X) =  -628.358634078     A.U. after    8 cycles
 SCF Done:  E(RM062X) =  -628.358634129     A.U. after    7 cycles
 Optimization completed.
    -- Stationary point found.
 Normal termination of Gaussian 16 at Sun Oct 13 21:42:32 2019.

 ----------------------------------------------------------------------
 #P Geom=AllCheck Guess=TCheck SCRF=Check GenChk RM062X/6-311++G(d,p) F
 req
 ----------------------------------------------------------------------

 Structure from the checkpoint file:  "25.chk"
 -------------------
 Title Card Required
 -------------------
 Charge =  0 Multiplicity = 1

                         Standard orientation:
 ---------------------------------------------------------------------
 Center     Atomic      Atomic             Coordinates (Angstroms)
 Number     Number       Type             X           Y           Z
 ---------------------------------------------------------------------
      1          6           0        1.407103   -0.914566    0.000439
      2         16           0       -0.000001    0.188952   -0.000016
      3          8           0       -0.000463    0.911195    1.263208
      4          6           0       -1.407055   -0.914627   -0.000246
      5          8           0        0.000408    0.910877   -1.263410
      6          1           0        1.382808   -1.521423    0.903762
      7          1           0        1.383144   -1.521487   -0.902872
      8          1           0        2.285074   -0.269309    0.000477
      9          1           0       -1.383030   -1.521380    0.903173
     10          1           0       -2.285058   -0.269412   -0.000368
     11          1           0       -1.382765   -1.521649   -0.903461
 ---------------------------------------------------------------------

 SCF Done:  E(RM062X) =  -628.358634130     A.U. after    1 cycles

 The electronic state is 1-A.
 Alpha  occ. eigenvalues --  -90.10352 -19.61639 -19.61638 -10.58752 -10.58751
 Alpha  occ. eigenvalues --   -8.44758  -6.36951  -6.36876  -6.36875  -1.23996
 Alpha  occ. eigenvalues --   -1.12967  -0.90676  -0.85260  -0.69335  -0.59231
 Alpha  occ. eigenvalues --   -0.57790  -0.56834  -0.52517  -0.52226  -0.50365
 Alpha  occ. eigenvalues --   -0.49351  -0.40868  -0.40070  -0.37877  -0.36391
 Alpha virt. eigenvalues --   -0.01464   0.00913   0.01596   0.02538   0.04279
 Alpha virt. eigenvalues --    0.04537   0.04729   0.06985   0.07749   0.08138
 Alpha virt. eigenvalues --    0.09060   0.10809   0.10980   0.11014   0.12392

 Mulliken charges:
               1
     1  C   -0.544332
     2  S    0.190047
     3  O   -0.204626
     4  C   -0.544334
     5  O   -0.204638
     6  H    0.209467
     7  H    0.209510
     8  H    0.234964
     9  H    0.209508
    10  H    0.234965
    11  H    0.209469
 Sum of Mulliken charges =  -0.00000

 Dipole moment (field-independent basis, Debye):
    X=              0.0002    Y=             -5.0344    Z=              0.0006  Tot=              5.0344
 Quadrupole moment (field-independent basis, Debye-Ang):
   XX=            -31.7671   YY=            -39.1416   ZZ=            -44.5467
   XY=              0.0001   XZ=              0.0035   YZ=             -0.0006

  Exact polarizability:  51.757  -0.000  48.572  -0.001   0.000  48.617
 Approx polarizability:  55.017  -0.000  57.624  -0.005   0.001  64.215

                      1                      2                      3
                      A                      A                      A
 Frequencies --    177.5898               212.9191               267.9741
 Red. masses --      1.0317                 1.0420                 2.5602
 Frc consts  --      0.0192                 0.0278                 0.1083
 IR Inten    --      0.0000                 0.4878                 2.5448

                      4                      5                      6
                      A                      A                      A
 Frequencies --    293.2476               358.5240               450.1885
 Red. masses --      3.9021                 3.0871                 4.4102
 Frc consts  --      0.1977                 0.2338                 0.5266
 IR Inten    --      0.0000                 1.0242                45.4741

                      7                      8                      9
                      A                      A                      A
 Frequencies --    481.4152               695.1611               759.5626
 Red. masses --      8.5522                 4.4301                 2.7846
 Frc consts  --      1.1678                 1.2614                 0.9465
 IR Inten    --     32.0737                 8.9881                40.1446

                     10                     11                     12
                      A                      A                      A
 Frequencies --    946.2683               958.8895              1005.2407
 Red. masses --      1.2572                 1.7040                 1.4287
 Frc consts  --      0.6633                 0.9231                 0.8506
 IR Inten    --      0.0000                68.9130                 0.7714

                     13                     14                     15
                      A                      A                      A
 Frequencies --   1019.8483              1152.1840              1337.0279
 Red. masses --      1.5208                 7.5602                13.9486
 Frc consts  --      0.9319                 5.9132                14.6913
 IR Inten    --      0.2266               196.3062               291.0504

                     16                     17                     18
                      A                      A                      A
 Frequencies --   1343.3820              1363.6154              1449.5820
 Red. masses --      1.2334                 1.2360                 1.0497
 Frc consts  --      1.3115                 1.3541                 1.2996
 IR Inten    --     16.5572                19.2256                 6.6362

                     19                     20                     21
                      A                      A                      A
 Frequencies --   1450.3157              1459.9616              1465.9374
 Red. masses --      1.0478                 1.0425                 1.0498
 Frc consts  --      1.2985                 1.3092                 1.3292
 IR Inten    --      0.0000                 5.2379                11.7135

                     22                     23                     24
                      A                      A                      A
 Frequencies --   3087.9138              3089.9006              3192.1051
 Red. masses --      1.0292                 1.0293                 1.1051
 Frc consts  --      5.7821                 5.7902                 6.6344
 IR Inten    --      1.1805                 0.5886                 1.5797

                     25                     26                     27
                      A                      A                      A
 Frequencies --   3193.3250              3201.5817              3204.9886
 Red. masses --      1.1059                 1.1086                 1.1085
 Frc consts  --      6.6446                 6.6948                 6.7085
 IR Inten    --      0.0793                 0.0000                 0.0077

 - Thermochemistry -
 -------------------
 Temperature     0.001 Kelvin.  Pressure   1.00000 Atm.
 Atom     1 has atomic number  6 and mass  12.00000

 Molecular mass:    94.00885 amu.
 Principal axes and moments of inertia in atomic units:
                           1         2         3
     Eigenvalues --   396.86240 428.86779 437.60101
           X            1.00000   0.00002   0.00026
           Y           -0.00002   1.00000  -0.00028
           Z           -0.00026   0.00028   1.00000
 This molecule is an asymmetric top.
 Rotational symmetry number  1.
 Rotational temperatures (Kelvin)      0.21825     0.20196     0.19793
 Rotational constants (GHZ):           4.54752     4.20815     4.12417
 Zero-point vibrational energy     225009.5 (Joules/Mol)
                                   53.77856 (Kcal/Mol)
 Vibrational temperatures:    255.51   306.34   385.55   421.92   515.84
          (Kelvin)            647.72   692.65  1000.18  1092.84  1361.47
                             1379.63  1446.32  1467.33  1657.74  1923.68
                             1932.83  1961.94  2085.63  2086.68  2100.56
                             2109.16  4442.82  4445.68  4592.73  4594.48
                             4606.36  4611.26

 Zero-point correction=                           0.085702 (Hartree/Particle)
 Thermal correction to Energy=                    0.085702
 Thermal correction to Enthalpy=                  0.085702
 Thermal correction to Gibbs Free Energy=         0.085702
 Sum of electronic and zero-point Energies=           -628.272933
 Sum of electronic and thermal Energies=              -628.272933
 Sum of electronic and thermal Enthalpies=            -628.272933
 Sum of electronic and thermal Free Energies=         -628.272932

                     E (Thermal)             CV                S
                      KCal/Mol        Cal/Mol-Kelvin    Cal/Mol-Kelvin
 Total                   53.779              5.962            -34.851
 Electronic               0.000              0.000              0.000
 Translational            0.000              2.981            -23.090
 Rotational               0.000              2.981            -11.761
 Vibrational             53.779              0.000              0.000

 Optimization completed.
    -- Stationary point found.
 Normal termination of Gaussian 16 at Sun Oct 13 21:42:57 2019.
