 Gaussian 16, Revision A.03,
 Gaussian 16:  ES64L-G16RevA.03 25-Dec-2016

 -------------------------------------------------------------------
 #P opt freq m062x/6-311++g(d,p) geom=connectivity temperature=0.001
 -------------------------------------------------------------------

 -------------------
 Title Card Required
 -------------------
 Symbolic Z-matrix:
 Charge =  1 Multiplicity = 1

 SCF Done:  E(RM062X) =  -628.634533801     A.U. after   14 cycles
 SCF Done:  E(RM062X) =  -628.664857845     A.U. after   12 cycles
 SCF Done:  E(RM062X) =  -628.668679402     A.U. after   12 cycles
 SCF Done:  E(RM062X) =  -628.671587002     A.U. after   11 cycles
 SCF Done:  E(RM062X) =  -628.672673028     A.U. after   11 cycles
 SCF Done:  E(RM062X) =  -628.675268249     A.U. after   12 cycles
 SCF Done:  E(RM062X) =  -628.676089069     A.U. after   11 cycles
 SCF Done:  E(RM062X) =  -628.676784782     A.U. after   11 cycles
 SCF Done:  E(RM062X) =  -628.676888151     A.U. after   10 cycles
 SCF Done:  E(RM062X) =  -628.676921613     A.U. after    9 cycles
 SCF Done:  E(RM062X) =  -628.676925663     A.U. after    9 cycles
 SCF Done:  E(RM062X) =  -628.676926243     A.U. after    8 cycles
 SCF Done:  E(RM062X) =  -628.676926667     A.U. after    9 cycles
 SCF Done:  E(RM062X) =  -628.676926713     A.U. after    7 cycles
 Optimization completed.
    -- Stationary point found.
 Normal termination of Gaussian 16 at Sun Oct 13 21:43:25 2019.

 ----------------------------------------------------------------------
 #P Geom=AllCheck Guess=TCheck SCRF=Check GenChk RM062X/6-311++G(d,p) F
 req
 ----------------------------------------------------------------------

 Structure from the checkpoint file:  "25_p.chk"
 -------------------
 Title Card Required
 -------------------
 Charge =  1 Multiplicity = 1

                         Standard orientation:
 ---------------------------------------------------------------------
 Center     Atomic      Atomic             Coordinates (Angstroms)
 Number     Number       Type             X           Y           Z
 ---------------------------------------------------------------------
      1          6           0        1.444590    0.908170   -0.073095
      2         16           0       -0.007666   -0.078679    0.124628
      3          8           0        0.130697   -1.022682   -1.139796
      4          6           0       -1.430259    0.919455   -0.221242
      5          8           0       -0.099158   -0.769520    1.378199
      6          1           0        1.452268    1.321556   -1.082022
      7          1           0        1.406678    1.685595    0.691422
      8          1           0        2.289320    0.236999    0.090571
      9          1           0       -1.323346    1.347963   -1.217961
     10          1           0       -2.295924    0.257524   -0.159952
     11          1           0       -1.479789    1.685551    0.554313
     12          1           0       -0.264850   -1.904455   -1.011632
 ---------------------------------------------------------------------

 SCF Done:  E(RM062X) =  -628.676926713     A.U. after    1 cycles

 The electronic state is 1-A.
 Alpha  occ. eigenvalues --  -90.34047 -19.90630 -19.85281 -10.79058 -10.78974
 Alpha  occ. eigenvalues --   -8.68704  -6.60982  -6.60748  -6.60636  -1.48690
 Alpha  occ. eigenvalues --   -1.39226  -1.14773  -1.05937  -0.95746  -0.85022
 Alpha  occ. eigenvalues --   -0.80682  -0.79934  -0.74022  -0.72260  -0.71806
 Alpha  occ. eigenvalues --   -0.70402  -0.69170  -0.65954  -0.62190  -0.59993
 Alpha virt. eigenvalues --   -0.16513  -0.15063  -0.13603  -0.12203  -0.11540
 Alpha virt. eigenvalues --   -0.11411  -0.10612  -0.09699  -0.08095  -0.07262
 Alpha virt. eigenvalues --   -0.06816  -0.06262  -0.05555  -0.03816  -0.03702

 Mulliken charges:
               1
     1  C   -0.475005
     2  S    0.163715
     3  O   -0.130345
     4  C   -0.518420
     5  O   -0.066732
     6  H    0.267535
     7  H    0.275769
     8  H    0.286728
     9  H    0.267449
    10  H    0.274352
    11  H    0.275742
    12  H    0.379210
 Sum of Mulliken charges =   1.00000

 Dipole moment (field-independent basis, Debye):
    X=             -0.5552    Y=              2.2026    Z=             -2.2085  Tot=              3.1681
 Quadrupole moment (field-independent basis, Debye-Ang):
   XX=            -25.0453   YY=            -25.4826   ZZ=            -37.8331
   XY=              1.4741   XZ=              1.5907   YZ=              3.3278

  Exact polarizability:  48.312   0.433  46.026  -0.066  -1.063  44.539
 Approx polarizability:  52.869   0.676  54.633  -1.111  -3.190  59.186

                      1                      2                      3
                      A                      A                      A
 Frequencies --    141.9499               177.8613               211.7606
 Red. masses --      1.3595                 1.0275                 1.0605
 Frc consts  --      0.0161                 0.0192                 0.0280
 IR Inten    --    112.7027                 4.0847                 2.7508

                      4                      5                      6
                      A                      A                      A
 Frequencies --    257.4532               302.4540               336.7243
 Red. masses --      2.6359                 2.2630                 3.0066
 Frc consts  --      0.1029                 0.1220                 0.2009
 IR Inten    --      2.9693                28.1165                 2.4675

                      7                      8                      9
                      A                      A                      A
 Frequencies --    413.0254               420.5672               661.6220
 Red. masses --      3.5122                 5.8101                 4.6429
 Frc consts  --      0.3530                 0.6055                 1.1975
 IR Inten    --     30.3132                51.7577                 0.4211

                     10                     11                     12
                      A                      A                      A
 Frequencies --    765.3533               875.3958               959.1686
 Red. masses --      3.2532                 5.3196                 1.2519
 Frc consts  --      1.1228                 2.4018                 0.6786
 IR Inten    --     15.4119               173.2571                 0.8018

                     13                     14                     15
                      A                      A                      A
 Frequencies --    971.1227              1026.3093              1057.4898
 Red. masses --      1.5464                 1.4609                 1.4243
 Frc consts  --      0.8593                 0.9067                 0.9385
 IR Inten    --     43.3227                 5.8843                83.4816

                     16                     17                     18
                      A                      A                      A
 Frequencies --   1109.9273              1336.3241              1357.0699
 Red. masses --      1.3420                 4.7826                 1.1913
 Frc consts  --      0.9741                 5.0320                 1.2927
 IR Inten    --     30.6848               173.2660                10.3742

                     19                     20                     21
                      A                      A                      A
 Frequencies --   1382.0086              1425.8016              1431.8289
 Red. masses --      1.3335                 1.0435                 1.0441
 Frc consts  --      1.5006                 1.2499                 1.2611
 IR Inten    --     53.4324                 4.8628                 3.7965

                     22                     23                     24
                      A                      A                      A
 Frequencies --   1442.2924              1452.2419              3070.1136
 Red. masses --      1.0414                 1.0563                 1.0279
 Frc consts  --      1.2764                 1.3126                 5.7086
 IR Inten    --     19.6106                14.3513                41.8700

                     25                     26                     27
                      A                      A                      A
 Frequencies --   3073.9288              3178.4557              3183.9110
 Red. masses --      1.0281                 1.1074                 1.1087
 Frc consts  --      5.7234                 6.5917                 6.6221
 IR Inten    --     11.0739                16.6393                26.0069

                     28                     29                     30
                      A                      A                      A
 Frequencies --   3189.7282              3193.7487              3737.0743
 Red. masses --      1.1094                 1.1098                 1.0670
 Frc consts  --      6.6503                 6.6696                 8.7799
 IR Inten    --      3.0706                32.1428               336.2486

 - Thermochemistry -
 -------------------
 Temperature     0.001 Kelvin.  Pressure   1.00000 Atm.
 Atom     1 has atomic number  6 and mass  12.00000

 Molecular mass:    95.01668 amu.
 Principal axes and moments of inertia in atomic units:
                           1         2         3
     Eigenvalues --   414.26734 447.55442 458.67588
           X            0.99581   0.01456   0.09026
           Y           -0.04014   0.95661   0.28858
           Z           -0.08214  -0.29099   0.95319
 This molecule is an asymmetric top.
 Rotational symmetry number  1.
 Rotational temperatures (Kelvin)      0.20908     0.19353     0.18883
 Rotational constants (GHZ):           4.35647     4.03245     3.93468
 Zero-point vibrational energy     252069.4 (Joules/Mol)
                                   60.24603 (Kcal/Mol)
 Vibrational temperatures:    204.23   255.90   304.68   370.42   435.16
          (Kelvin)            484.47   594.25   605.10   951.93  1101.17
                             1259.50  1380.03  1397.23  1476.63  1521.49
                             1596.94  1922.67  1952.52  1988.40  2051.41
                             2060.08  2075.14  2089.45  4417.21  4422.70
                             4573.09  4580.94  4589.31  4595.09  5376.82

 Zero-point correction=                           0.096008 (Hartree/Particle)
 Thermal correction to Energy=                    0.096008
 Thermal correction to Enthalpy=                  0.096008
 Thermal correction to Gibbs Free Energy=         0.096008
 Sum of electronic and zero-point Energies=           -628.580919
 Sum of electronic and thermal Energies=              -628.580919
 Sum of electronic and thermal Enthalpies=            -628.580919
 Sum of electronic and thermal Free Energies=         -628.580918

                     E (Thermal)             CV                S
                      KCal/Mol        Cal/Mol-Kelvin    Cal/Mol-Kelvin
 Total                   60.246              5.962            -34.687
 Electronic               0.000              0.000              0.000
 Translational            0.000              2.981            -23.058
 Rotational               0.000              2.981            -11.629
 Vibrational             60.246              0.000              0.000

 Optimization completed.
    -- Stationary point found.
 Normal termination of Gaussian 16 at Sun Oct 13 21:43:55 2019.
