 Gaussian 16, Revision A.03,
 Gaussian 16:  ES64L-G16RevA.03 25-Dec-2016

 -------------------------------------------------------------------
 #P opt freq m062x/6-311++g(d,p) geom=connectivity temperature=0.001
 -------------------------------------------------------------------

 -------------------
 Title Card Required
 -------------------
 Symbolic Z-matrix:
 Charge =  0 Multiplicity = 1

 SCF Done:  E(RM062X) =  -1570.96727905     A.U. after   18 cycles
 SCF Done:  E(RM062X) =  -1571.02876765     A.U. after   15 cycles
 SCF Done:  E(RM062X) =  -1571.06354141     A.U. after   15 cycles
 SCF Done:  E(RM062X) =  -1571.07042720     A.U. after   15 cycles
 SCF Done:  E(RM062X) =  -1571.07222386     A.U. after   15 cycles
 SCF Done:  E(RM062X) =  -1571.07291347     A.U. after   15 cycles
 SCF Done:  E(RM062X) =  -1571.07396542     A.U. after   15 cycles
 SCF Done:  E(RM062X) =  -1571.07565871     A.U. after   16 cycles
 SCF Done:  E(RM062X) =  -1571.07509660     A.U. after   18 cycles
 SCF Done:  E(RM062X) =  -1571.07862265     A.U. after   16 cycles
 SCF Done:  E(RM062X) =  -1571.08197715     A.U. after   15 cycles
 SCF Done:  E(RM062X) =  -1571.08196757     A.U. after   14 cycles
 SCF Done:  E(RM062X) =  -1571.08200674     A.U. after   14 cycles
 SCF Done:  E(RM062X) =  -1571.08201095     A.U. after   13 cycles
 SCF Done:  E(RM062X) =  -1571.08201102     A.U. after   12 cycles
 SCF Done:  E(RM062X) =  -1571.08201240     A.U. after   13 cycles
 SCF Done:  E(RM062X) =  -1571.08201224     A.U. after   12 cycles
 SCF Done:  E(RM062X) =  -1571.08201274     A.U. after   12 cycles
 SCF Done:  E(RM062X) =  -1571.08201274     A.U. after   10 cycles
 Optimization completed.
    -- Stationary point found.
 Normal termination of Gaussian 16 at Sun Oct 13 23:31:06 2019.

 ----------------------------------------------------------------------
 #P Geom=AllCheck Guess=TCheck SCRF=Check GenChk RM062X/6-311++G(d,p) F
 req
 ----------------------------------------------------------------------

 Structure from the checkpoint file:  "26.chk"
 -------------------
 Title Card Required
 -------------------
 Charge =  0 Multiplicity = 1

                         Standard orientation:
 ---------------------------------------------------------------------
 Center     Atomic      Atomic             Coordinates (Angstroms)
 Number     Number       Type             X           Y           Z
 ---------------------------------------------------------------------
      1          8           0        6.707286   -0.240046    1.049547
      2          6           0        5.599238   -0.668803    0.938814
      3          8           0        4.844542   -0.933024    2.020756
      4          6           0        4.965415   -1.003191   -0.413931
      5          6           0        3.483819   -0.813838   -0.451622
      6          6           0        2.871225    0.525142   -0.407902
      7          6           0        3.485407    1.767264   -0.387935
      8          6           0        2.650467    2.875872   -0.425367
      9          9           0        3.208519    4.095364   -0.408540
     10          6           0        1.271231    2.780483   -0.496162
     11          6           0        0.670684    1.520830   -0.504004
     12          6           0        1.469930    0.387659   -0.433261
     13          6           0        2.504158   -1.746843   -0.508910
     14          6           0        2.647678   -3.233595   -0.575811
     15          6           0        1.184053   -1.066931   -0.471074
     16          6           0        0.021698   -1.740910   -0.481020
     17          6           0       -1.335358   -1.190745   -0.313201
     18          6           0       -2.355810   -1.578154   -1.188568
     19          6           0       -3.645445   -1.087715   -1.033532
     20          6           0       -3.910314   -0.225132    0.022745
     21         16           0       -5.574551    0.383309    0.252607
     22          8           0       -6.260694    0.290305   -1.027434
     23          6           0       -6.313943   -0.819432    1.351013
     24          8           0       -5.488735    1.643409    0.975558
     25          6           0       -2.920720    0.161110    0.919437
     26          6           0       -1.633501   -0.328136    0.747928
     27          1           0        3.957346   -1.201179    1.747505
     28          1           0        5.464310   -0.372932   -1.152557
     29          1           0        5.239114   -2.037550   -0.636554
     30          1           0        4.561229    1.897456   -0.355126
     31          1           0        0.682341    3.687071   -0.546336
     32          1           0       -0.406464    1.453548   -0.575940
     33          1           0        2.162318   -3.715479    0.277261
     34          1           0        2.180993   -3.626892   -1.483229
     35          1           0        3.693889   -3.537281   -0.580641
     36          1           0        0.068167   -2.819102   -0.618839
     37          1           0       -2.129308   -2.250761   -2.008211
     38          1           0       -4.437111   -1.347997   -1.726617
     39          1           0       -7.335942   -0.479023    1.517503
     40          1           0       -6.304002   -1.790830    0.859985
     41          1           0       -5.752507   -0.829744    2.283522
     42          1           0       -3.160278    0.847803    1.723390
     43          1           0       -0.846619   -0.043091    1.436805
 ---------------------------------------------------------------------

 SCF Done:  E(RM062X) =  -1571.08201274     A.U. after    1 cycles

 The electronic state is 1-A.
 Alpha  occ. eigenvalues --  -90.11039 -25.26246 -19.67869 -19.62485 -19.62468
 Alpha  occ. eigenvalues --  -19.62170 -10.68975 -10.64686 -10.60174 -10.59765
 Alpha  occ. eigenvalues --  -10.59081 -10.59042 -10.58976 -10.58846 -10.58833
 Alpha  occ. eigenvalues --  -10.58644 -10.58469 -10.58385 -10.58357 -10.58206
 Alpha  occ. eigenvalues --  -10.57837 -10.57446 -10.57287 -10.56928 -10.56814
 Alpha  occ. eigenvalues --  -10.56469  -8.45410  -6.37612  -6.37549  -6.37513
 Alpha  occ. eigenvalues --   -1.38454  -1.24677  -1.24556  -1.15862  -1.13814
 Alpha  occ. eigenvalues --   -1.02981  -1.01235  -0.96646  -0.93927  -0.90712
 Alpha  occ. eigenvalues --   -0.88821  -0.88345  -0.87869  -0.86934  -0.84503
 Alpha  occ. eigenvalues --   -0.80382  -0.77225  -0.73813  -0.73445  -0.72000
 Alpha  occ. eigenvalues --   -0.71297  -0.69395  -0.67486  -0.65385  -0.63461
 Alpha  occ. eigenvalues --   -0.62725  -0.60701  -0.60394  -0.59075  -0.57988
 Alpha  occ. eigenvalues --   -0.57853  -0.57784  -0.57102  -0.55719  -0.55536
 Alpha  occ. eigenvalues --   -0.55067  -0.54756  -0.54382  -0.53146  -0.52680
 Alpha  occ. eigenvalues --   -0.52561  -0.51663  -0.51502  -0.51321  -0.50005
 Alpha  occ. eigenvalues --   -0.48737  -0.48242  -0.48113  -0.47186  -0.47130
 Alpha  occ. eigenvalues --   -0.46420  -0.46071  -0.44581  -0.43052  -0.41739
 Alpha  occ. eigenvalues --   -0.41538  -0.41026  -0.40793  -0.40192  -0.38854
 Alpha  occ. eigenvalues --   -0.38093  -0.36887  -0.35784  -0.35043  -0.34629
 Alpha  occ. eigenvalues --   -0.29976  -0.29431
 Alpha virt. eigenvalues --   -0.07715  -0.02916  -0.02238  -0.02174  -0.01279
 Alpha virt. eigenvalues --   -0.00878  -0.00529   0.00089   0.00337   0.00989
 Alpha virt. eigenvalues --    0.01415   0.01566   0.02122   0.02559   0.02888

 Mulliken charges:
               1
     1  O   -0.197023
     2  C   -0.236769
     3  O   -0.127315
     4  C   -0.303261
     5  C    0.072671
     6  C    0.423602
     7  C   -0.586739
     8  C   -0.433896
     9  F   -0.143492
    10  C    0.337162
    11  C   -0.883134
    12  C   -0.006311
    13  C    0.311275
    14  C   -0.356765
    15  C    0.114624
    16  C   -0.283819
    17  C    0.609001
    18  C   -0.281460
    19  C   -0.420643
    20  C    0.033286
    21  S    0.305038
    22  O   -0.123712
    23  C   -0.604841
    24  O   -0.125805
    25  C   -0.302728
    26  C   -0.695369
    27  H    0.314596
    28  H    0.265349
    29  H    0.202694
    30  H    0.224568
    31  H    0.256775
    32  H    0.146162
    33  H    0.203986
    34  H    0.192458
    35  H    0.164092
    36  H    0.223707
    37  H    0.237553
    38  H    0.284619
    39  H    0.249160
    40  H    0.220511
    41  H    0.222585
    42  H    0.292789
    43  H    0.204816
 Sum of Mulliken charges =  -0.00000

 Dipole moment (field-independent basis, Debye):
    X=             -2.4969    Y=             -7.4267    Z=             -0.5788  Tot=              7.8566
 Quadrupole moment (field-independent basis, Debye-Ang):
   XX=           -210.0308   YY=           -155.6385   ZZ=           -162.1464
   XY=              9.3766   XZ=            -28.1212   YZ=              2.0422

  Exact polarizability: 392.204  17.198 260.287   0.216  13.447 176.346
 Approx polarizability: 417.219  29.093 352.167   8.927  27.552 254.258

                      1                      2                      3
                      A                      A                      A
 Frequencies --     17.7562                23.3425                27.4445
 Red. masses --      6.7236                 9.1941                 7.3068
 Frc consts  --      0.0012                 0.0030                 0.0032
 IR Inten    --      2.8571                 3.1302                 2.6664

                      4                      5                      6
                      A                      A                      A
 Frequencies --     30.2777                43.4812                57.7968
 Red. masses --      6.9472                 7.7635                 4.5273
 Frc consts  --      0.0038                 0.0086                 0.0089
 IR Inten    --      2.8456                 3.2851                 1.1946

                      7                      8                      9
                      A                      A                      A
 Frequencies --     72.3783                91.9097               103.5514
 Red. masses --      5.8964                 5.3313                 4.2933
 Frc consts  --      0.0182                 0.0265                 0.0271
 IR Inten    --      0.1669                 1.7181                 1.3090

                     10                     11                     12
                      A                      A                      A
 Frequencies --    109.4203               160.7070               162.4738
 Red. masses --      4.8040                 5.0077                 1.1196
 Frc consts  --      0.0339                 0.0762                 0.0174
 IR Inten    --      2.1685                 0.1840                 0.0445

                     13                     14                     15
                      A                      A                      A
 Frequencies --    172.9113               190.1844               197.5281
 Red. masses --      3.0632                 3.9131                 2.9070
 Frc consts  --      0.0540                 0.0834                 0.0668
 IR Inten    --      2.1298                 3.4954                 0.5453

                     16                     17                     18
                      A                      A                      A
 Frequencies --    210.7051               231.4406               261.9388
 Red. masses --      1.4741                 4.7962                 6.1745
 Frc consts  --      0.0386                 0.1514                 0.2496
 IR Inten    --      0.8704                 3.5999                 3.2663

                     19                     20                     21
                      A                      A                      A
 Frequencies --    278.4976               295.1466               308.3064
 Red. masses --      3.6609                 3.7855                 4.2673
 Frc consts  --      0.1673                 0.1943                 0.2390
 IR Inten    --      2.8885                 1.9408                 0.7859

                     22                     23                     24
                      A                      A                      A
 Frequencies --    338.2631               359.7251               371.9620
 Red. masses --      3.9687                 7.4752                 4.4404
 Frc consts  --      0.2675                 0.5699                 0.3620
 IR Inten    --      0.9586                 2.1551                 3.8572

                     25                     26                     27
                      A                      A                      A
 Frequencies --    400.1376               415.5600               420.2308
 Red. masses --      4.7008                 3.9065                 4.2749
 Frc consts  --      0.4434                 0.3975                 0.4448
 IR Inten    --      6.2075                 1.0384                 5.5296

                     28                     29                     30
                      A                      A                      A
 Frequencies --    438.0830               446.6229               447.8891
 Red. masses --      4.7888                 3.7799                 4.7228
 Frc consts  --      0.5415                 0.4442                 0.5582
 IR Inten    --      2.0022                 1.2535                 0.2648

                     31                     32                     33
                      A                      A                      A
 Frequencies --    482.3248               502.1267               512.9608
 Red. masses --      4.8928                 5.3941                 2.9236
 Frc consts  --      0.6706                 0.8013                 0.4533
 IR Inten    --     21.3159                 5.6710                75.0877

                     34                     35                     36
                      A                      A                      A
 Frequencies --    527.3045               544.9904               557.3850
 Red. masses --      2.9247                 3.8903                 3.2111
 Frc consts  --      0.4791                 0.6808                 0.5878
 IR Inten    --      4.4094                60.2215                47.7008

                     37                     38                     39
                      A                      A                      A
 Frequencies --    584.7089               597.0345               632.2488
 Red. masses --      1.6507                 4.6339                 4.1182
 Frc consts  --      0.3325                 0.9732                 0.9699
 IR Inten    --     23.7436                46.5676                 0.7029

                     40                     41                     42
                      A                      A                      A
 Frequencies --    639.7423               646.3428               667.6686
 Red. masses --      5.9775                 3.4714                 4.5916
 Frc consts  --      1.4414                 0.8544                 1.2060
 IR Inten    --      1.3790                 8.5929                 1.0262

                     43                     44                     45
                      A                      A                      A
 Frequencies --    681.3030               717.8077               721.3455
 Red. masses --      4.7392                 4.8528                 5.2250
 Frc consts  --      1.2961                 1.4732                 1.6019
 IR Inten    --     11.7157                 5.1411                 5.3861

                     46                     47                     48
                      A                      A                      A
 Frequencies --    744.3768               762.4501               780.7413
 Red. masses --      4.0422                 4.9310                 5.4013
 Frc consts  --      1.3196                 1.6889                 1.9398
 IR Inten    --     24.5440                 5.2786               102.3598

                     49                     50                     51
                      A                      A                      A
 Frequencies --    787.2071               851.0366               856.3788
 Red. masses --      4.7572                 1.6467                 2.5365
 Frc consts  --      1.7369                 0.7027                 1.0960
 IR Inten    --      7.4157                28.3152                 6.7217

                     52                     53                     54
                      A                      A                      A
 Frequencies --    864.2528               880.2409               886.4419
 Red. masses --      1.8000                 1.2518                 3.6661
 Frc consts  --      0.7921                 0.5715                 1.6973
 IR Inten    --      8.1428                 0.2117                17.0478

                     55                     56                     57
                      A                      A                      A
 Frequencies --    898.1831               903.5368               919.9254
 Red. masses --      1.8354                 1.8699                 2.0413
 Frc consts  --      0.8724                 0.8994                 1.0178
 IR Inten    --     46.3805                 0.4585                21.6559

                     58                     59                     60
                      A                      A                      A
 Frequencies --    941.5973               981.4549               984.0769
 Red. masses --      3.1653                 1.3449                 1.4296
 Frc consts  --      1.6535                 0.7633                 0.8157
 IR Inten    --     39.1737                 1.6995                82.5271

                     61                     62                     63
                      A                      A                      A
 Frequencies --    986.1950               996.6608              1009.4703
 Red. masses --      1.3478                 1.8409                 1.6820
 Frc consts  --      0.7723                 1.0774                 1.0098
 IR Inten    --      2.9023                 1.3826                 0.5453

                     64                     65                     66
                      A                      A                      A
 Frequencies --   1020.4589              1037.1497              1040.6876
 Red. masses --      1.3688                 3.3183                 2.4925
 Frc consts  --      0.8398                 2.1030                 1.5905
 IR Inten    --      0.8406                 3.8778                 0.6857

                     67                     68                     69
                      A                      A                      A
 Frequencies --   1054.4607              1094.5264              1113.4078
 Red. masses --      1.5508                 2.1913                 3.9152
 Frc consts  --      1.0159                 1.5467                 2.8596
 IR Inten    --      0.4006                 2.6150                42.1104

                     70                     71                     72
                      A                      A                      A
 Frequencies --   1133.9766              1143.8495              1162.4499
 Red. masses --      1.3276                 1.5262                 5.6945
 Frc consts  --      1.0058                 1.1766                 4.5337
 IR Inten    --      5.5596                 0.5270               276.7211

                     73                     74                     75
                      A                      A                      A
 Frequencies --   1170.4812              1184.8497              1206.8399
 Red. masses --      2.0081                 1.7342                 1.1685
 Frc consts  --      1.6209                 1.4344                 1.0027
 IR Inten    --     20.9626                37.0407                 1.3009

                     76                     77                     78
                      A                      A                      A
 Frequencies --   1220.7417              1243.6890              1252.3230
 Red. masses --      2.3150                 2.3790                 1.5749
 Frc consts  --      2.0326                 2.1680                 1.4553
 IR Inten    --     34.0039                11.9865                21.9976

                     79                     80                     81
                      A                      A                      A
 Frequencies --   1265.7162              1305.6373              1310.6979
 Red. masses --      2.1070                 2.6000                 1.8272
 Frc consts  --      1.9888                 2.6114                 1.8494
 IR Inten    --     12.0665                17.1175                21.9652

                     82                     83                     84
                      A                      A                      A
 Frequencies --   1316.6368              1325.3105              1342.7061
 Red. masses --      3.5066                 1.5122                 7.2665
 Frc consts  --      3.5815                 1.5649                 7.7186
 IR Inten    --     15.2494                 6.3611               149.9260

                     85                     86                     87
                      A                      A                      A
 Frequencies --   1349.9685              1351.1901              1352.8487
 Red. masses --      4.0778                 1.2326                 2.3433
 Frc consts  --      4.3785                 1.3259                 2.5268
 IR Inten    --     18.6774                15.9258               287.6180

                     88                     89                     90
                      A                      A                      A
 Frequencies --   1369.5495              1407.4605              1431.3416
 Red. masses --      2.2690                 1.9350                 2.1036
 Frc consts  --      2.5075                 2.2584                 2.5393
 IR Inten    --     45.2347                18.2482                 2.9958

                     91                     92                     93
                      A                      A                      A
 Frequencies --   1440.5704              1453.0518              1455.3690
 Red. masses --      2.7445                 1.0466                 1.0509
 Frc consts  --      3.3557                 1.3019                 1.3115
 IR Inten    --     20.8483                 3.8209                 7.2047

                     94                     95                     96
                      A                      A                      A
 Frequencies --   1465.2015              1485.8915              1486.4815
 Red. masses --      1.1278                 1.0417                 4.2944
 Frc consts  --      1.4265                 1.3550                 5.5908
 IR Inten    --     13.2403                11.6546                 7.1104

                     97                     98                     99
                      A                      A                      A
 Frequencies --   1498.1028              1526.2274              1537.3893
 Red. masses --      1.0894                 3.5074                 2.6558
 Frc consts  --      1.4405                 4.8136                 3.6984
 IR Inten    --     14.8136               143.5712                31.5179

                    100                    101                    102
                      A                      A                      A
 Frequencies --   1638.2291              1663.6571              1667.2887
 Red. masses --      7.3774                 7.7454                 6.0704
 Frc consts  --     11.6655                12.6305                 9.9423
 IR Inten    --      2.7764                13.6985                34.0156

                    103                    104                    105
                      A                      A                      A
 Frequencies --   1682.3578              1705.2899              1730.3670
 Red. masses --      7.2799                 8.8480                 9.1313
 Frc consts  --     12.1399                15.1598                16.1086
 IR Inten    --    108.2920                10.4069                10.2447

                    106                    107                    108
                      A                      A                      A
 Frequencies --   1902.6260              3060.6338              3087.0406
 Red. masses --     10.7730                 1.0391                 1.0287
 Frc consts  --     22.9771                 5.7348                 5.7762
 IR Inten    --    566.2922                13.2139                 1.4043

                    109                    110                    111
                      A                      A                      A
 Frequencies --   3091.1758              3115.4901              3137.8078
 Red. masses --      1.0605                 1.1006                 1.1027
 Frc consts  --      5.9705                 6.2944                 6.3968
 IR Inten    --      5.3138                 5.0462                 0.7839

                    112                    113                    114
                      A                      A                      A
 Frequencies --   3160.3328              3167.0092              3192.7471
 Red. masses --      1.0981                 1.0876                 1.1060
 Frc consts  --      6.4620                 6.4274                 6.6426
 IR Inten    --     15.4649                 2.9715                 0.2521

                    115                    116                    117
                      A                      A                      A
 Frequencies --   3204.3858              3205.4827              3209.8206
 Red. masses --      1.1085                 1.0896                 1.0890
 Frc consts  --      6.7060                 6.5964                 6.6105
 IR Inten    --      0.0176                 1.7548                 1.2309

                    118                    119                    120
                      A                      A                      A
 Frequencies --   3216.8180              3222.1597              3223.5857
 Red. masses --      1.0934                 1.0952                 1.0961
 Frc consts  --      6.6665                 6.6997                 6.7109
 IR Inten    --      0.1305                 0.6185                 5.2056

                    121                    122                    123
                      A                      A                      A
 Frequencies --   3233.1489              3246.6283              3817.2148
 Red. masses --      1.0898                 1.0949                 1.0660
 Frc consts  --      6.7122                 6.7994                 9.1520
 IR Inten    --      1.4798                 0.3096               161.0899

 - Thermochemistry -
 -------------------
 Temperature     0.001 Kelvin.  Pressure   1.00000 Atm.
 Atom     1 has atomic number  8 and mass  15.99491

 Molecular mass:   372.08316 amu.
 Principal axes and moments of inertia in atomic units:
                           1         2         3
     Eigenvalues --  4636.47611********************
           X            0.99998  -0.00413  -0.00555
           Y            0.00420   0.99991   0.01290
           Z            0.00550  -0.01292   0.99990
 This molecule is an asymmetric top.
 Rotational symmetry number  1.
 Warning -- assumption of classical behavior for rotation
           may cause significant error
 Rotational temperatures (Kelvin)      0.01868     0.00382     0.00340
 Rotational constants (GHZ):           0.38925     0.07956     0.07089
 Zero-point vibrational energy     866537.3 (Joules/Mol)
                                  207.10740 (Kcal/Mol)
 Vibrational temperatures:     25.55    33.58    39.49    43.56    62.56
          (Kelvin)             83.16   104.14   132.24   148.99   157.43
                              231.22   233.76   248.78   273.63   284.20
                              303.16   332.99   376.87   400.70   424.65
                              443.58   486.69   517.56   535.17   575.71
                              597.90   604.62   630.30   642.59   644.41
                              693.96   722.45   738.04   758.67   784.12
                              801.95   841.27   859.00   909.66   920.45
                              929.94   960.63   980.24  1032.77  1037.86
                             1070.99  1097.00  1123.31  1132.62  1224.45
                             1232.14  1243.47  1266.47  1275.39  1292.29
                             1299.99  1323.57  1354.75  1412.09  1415.87
                             1418.91  1433.97  1452.40  1468.21  1492.23
                             1497.32  1517.13  1574.78  1601.95  1631.54
                             1645.74  1672.51  1684.06  1704.73  1736.37
                             1756.38  1789.39  1801.81  1821.08  1878.52
                             1885.80  1894.35  1906.83  1931.85  1942.30
                             1944.06  1946.45  1970.48  2025.02  2059.38
                             2072.66  2090.62  2093.95  2108.10  2137.87
                             2138.72  2155.44  2195.90  2211.96  2357.05
                             2393.63  2398.86  2420.54  2453.53  2489.61
                             2737.45  4403.57  4441.56  4447.51  4482.50
                             4514.61  4547.01  4556.62  4593.65  4610.40
                             4611.97  4618.22  4628.28  4635.97  4638.02
                             4651.78  4671.17  5492.12

 Zero-point correction=                           0.330047 (Hartree/Particle)
 Thermal correction to Energy=                    0.330047
 Thermal correction to Enthalpy=                  0.330047
 Thermal correction to Gibbs Free Energy=         0.330047
 Sum of electronic and zero-point Energies=          -1570.751966
 Sum of electronic and thermal Energies=             -1570.751966
 Sum of electronic and thermal Enthalpies=           -1570.751966
 Sum of electronic and thermal Free Energies=        -1570.751966

                     E (Thermal)             CV                S
                      KCal/Mol        Cal/Mol-Kelvin    Cal/Mol-Kelvin
 Total                  207.107              5.962            -20.327
 Electronic               0.000              0.000              0.000
 Translational            0.000              2.981            -18.989
 Rotational               0.000              2.981             -1.338
 Vibrational            207.107              0.000              0.000

 Optimization completed.
    -- Stationary point found.
 Normal termination of Gaussian 16 at Mon Oct 14 00:11:11 2019.
