 Gaussian 16, Revision A.03,
 Gaussian 16:  ES64L-G16RevA.03 25-Dec-2016

 -------------------------------------------------------------------
 #P opt freq m062x/6-311++g(d,p) geom=connectivity temperature=0.001
 -------------------------------------------------------------------

 -------------------
 Title Card Required
 -------------------
 Symbolic Z-matrix:
 Charge =  1 Multiplicity = 1

 SCF Done:  E(RM062X) =  -1571.30243859     A.U. after   20 cycles
 SCF Done:  E(RM062X) =  -1571.35996736     A.U. after   16 cycles
 SCF Done:  E(RM062X) =  -1571.39067687     A.U. after   15 cycles
 SCF Done:  E(RM062X) =  -1571.39750218     A.U. after   15 cycles
 SCF Done:  E(RM062X) =  -1571.40037826     A.U. after   15 cycles
 SCF Done:  E(RM062X) =  -1571.40283961     A.U. after   16 cycles
 SCF Done:  E(RM062X) =  -1571.40484968     A.U. after   17 cycles
 SCF Done:  E(RM062X) =  -1571.40634537     A.U. after   14 cycles
 SCF Done:  E(RM062X) =  -1571.40703117     A.U. after   15 cycles
 SCF Done:  E(RM062X) =  -1571.40697471     A.U. after   15 cycles
 SCF Done:  E(RM062X) =  -1571.40891056     A.U. after   14 cycles
 SCF Done:  E(RM062X) =  -1571.40909290     A.U. after   15 cycles
 SCF Done:  E(RM062X) =  -1571.40912289     A.U. after   13 cycles
 SCF Done:  E(RM062X) =  -1571.40911005     A.U. after   13 cycles
 SCF Done:  E(RM062X) =  -1571.40913567     A.U. after   13 cycles
 SCF Done:  E(RM062X) =  -1571.40913339     A.U. after   12 cycles
 SCF Done:  E(RM062X) =  -1571.40914026     A.U. after   12 cycles
 SCF Done:  E(RM062X) =  -1571.40914032     A.U. after   10 cycles
 SCF Done:  E(RM062X) =  -1571.40914045     A.U. after    9 cycles
 Optimization completed.
    -- Stationary point found.
 Normal termination of Gaussian 16 at Sun Oct 13 23:31:07 2019.

 ----------------------------------------------------------------------
 #P Geom=AllCheck Guess=TCheck SCRF=Check GenChk RM062X/6-311++G(d,p) F
 req
 ----------------------------------------------------------------------

 Structure from the checkpoint file:  "26_p.chk"
 -------------------
 Title Card Required
 -------------------
 Charge =  1 Multiplicity = 1

                         Standard orientation:
 ---------------------------------------------------------------------
 Center     Atomic      Atomic             Coordinates (Angstroms)
 Number     Number       Type             X           Y           Z
 ---------------------------------------------------------------------
      1          8           0        6.420276    0.170422    1.162136
      2          6           0        5.507427   -0.587193    1.057283
      3          8           0        4.861235   -1.054641    2.143556
      4          6           0        4.982945   -1.103844   -0.284167
      5          6           0        3.508467   -0.893416   -0.408241
      6          6           0        2.927242    0.464546   -0.406483
      7          6           0        3.571587    1.687581   -0.377617
      8          6           0        2.767444    2.817443   -0.494647
      9          9           0        3.349760    4.017279   -0.473069
     10          6           0        1.394190    2.753391   -0.657237
     11          6           0        0.765256    1.507304   -0.671233
     12          6           0        1.527396    0.359652   -0.509735
     13          6           0        2.515264   -1.803607   -0.521880
     14          6           0        2.621338   -3.293577   -0.583254
     15          6           0        1.211398   -1.088692   -0.536373
     16          6           0        0.035994   -1.746510   -0.561219
     17          6           0       -1.309606   -1.192322   -0.389995
     18          6           0       -2.371448   -1.701734   -1.153316
     19          6           0       -3.665833   -1.242325   -0.977731
     20          6           0       -3.884767   -0.265472   -0.006292
     21         16           0       -5.531117    0.244670    0.253087
     22          8           0       -6.408991   -0.151780   -0.813440
     23          6           0       -6.102192   -0.251884    1.853445
     24          8           0       -5.464470    1.809450    0.529447
     25          6           0       -2.860014    0.248801    0.796258
     26          6           0       -1.578017   -0.222239    0.594229
     27          1           0        4.115416   -1.607572    1.882835
     28          1           0        5.520108   -0.557170   -1.061278
     29          1           0        5.245614   -2.160604   -0.371366
     30          1           0        4.646801    1.791654   -0.281741
     31          1           0        0.837851    3.673457   -0.779329
     32          1           0       -0.304257    1.464431   -0.831411
     33          1           0        2.091342   -3.765850    0.248636
     34          1           0        2.186891   -3.676043   -1.511071
     35          1           0        3.659022   -3.622884   -0.548527
     36          1           0        0.064705   -2.822698   -0.712036
     37          1           0       -2.173885   -2.460029   -1.901676
     38          1           0       -4.484584   -1.618794   -1.579789
     39          1           0       -7.090075    0.192733    1.980304
     40          1           0       -6.151101   -1.340749    1.831090
     41          1           0       -5.396254    0.106057    2.601928
     42          1           0       -3.057758    0.999702    1.553623
     43          1           0       -0.766504    0.146211    1.209928
     44          1           0       -5.242125    2.324887   -0.266255
 ---------------------------------------------------------------------

 SCF Done:  E(RM062X) =  -1571.40914045     A.U. after    1 cycles

 The electronic state is 1-A.
 Alpha  occ. eigenvalues --  -90.31013 -25.33716 -19.88064 -19.82387 -19.74654
 Alpha  occ. eigenvalues --  -19.68984 -10.76307 -10.75729 -10.75692 -10.73002
 Alpha  occ. eigenvalues --  -10.72739 -10.72690 -10.72250 -10.70717 -10.70576
 Alpha  occ. eigenvalues --  -10.68601 -10.67876 -10.66594 -10.66350 -10.66123
 Alpha  occ. eigenvalues --  -10.65875 -10.65633 -10.65236 -10.64624 -10.64574
 Alpha  occ. eigenvalues --  -10.64125  -8.65619  -6.57906  -6.57677  -6.57551
 Alpha  occ. eigenvalues --   -1.46143  -1.45625  -1.36497  -1.31315  -1.22700
 Alpha  occ. eigenvalues --   -1.15431  -1.11254  -1.10064  -1.05291  -1.04122
 Alpha  occ. eigenvalues --   -1.02082  -0.99910  -0.96213  -0.95672  -0.94753
 Alpha  occ. eigenvalues --   -0.92819  -0.88525  -0.87815  -0.86846  -0.82583
 Alpha  occ. eigenvalues --   -0.81267  -0.79877  -0.78608  -0.78361  -0.77305
 Alpha  occ. eigenvalues --   -0.76443  -0.73724  -0.71759  -0.71236  -0.70061
 Alpha  occ. eigenvalues --   -0.68996  -0.68909  -0.68246  -0.67853  -0.67608
 Alpha  occ. eigenvalues --   -0.67226  -0.66399  -0.65474  -0.65400  -0.64373
 Alpha  occ. eigenvalues --   -0.63504  -0.62684  -0.62463  -0.61182  -0.60393
 Alpha  occ. eigenvalues --   -0.60105  -0.59650  -0.59251  -0.58825  -0.57432
 Alpha  occ. eigenvalues --   -0.57136  -0.56414  -0.56042  -0.55666  -0.55085
 Alpha  occ. eigenvalues --   -0.54227  -0.53488  -0.51605  -0.50679  -0.49697
 Alpha  occ. eigenvalues --   -0.47976  -0.47557  -0.46917  -0.44585  -0.42672
 Alpha  occ. eigenvalues --   -0.38634  -0.37387
 Alpha virt. eigenvalues --   -0.20134  -0.14792  -0.14409  -0.13336  -0.12022
 Alpha virt. eigenvalues --   -0.10647  -0.09979  -0.09776  -0.09304  -0.08935
 Alpha virt. eigenvalues --   -0.08363  -0.07794  -0.07499  -0.07156  -0.06996

 Mulliken charges:
               1
     1  O   -0.168439
     2  C   -0.285166
     3  O   -0.104865
     4  C   -0.299315
     5  C    0.085793
     6  C    0.568001
     7  C   -0.482173
     8  C   -0.586688
     9  F   -0.123972
    10  C    0.308491
    11  C   -0.808404
    12  C    0.193863
    13  C    0.042436
    14  C   -0.463296
    15  C    0.263070
    16  C   -0.249358
    17  C    0.802623
    18  C   -0.168308
    19  C   -0.303141
    20  C    0.095245
    21  S   -0.034767
    22  O   -0.033009
    23  C   -0.538467
    24  O   -0.087738
    25  C   -0.297176
    26  C   -0.825436
    27  H    0.272219
    28  H    0.277054
    29  H    0.209280
    30  H    0.232631
    31  H    0.254679
    32  H    0.140231
    33  H    0.203042
    34  H    0.199520
    35  H    0.167026
    36  H    0.223813
    37  H    0.277237
    38  H    0.307344
    39  H    0.288720
    40  H    0.271122
    41  H    0.282297
    42  H    0.314203
    43  H    0.217648
    44  H    0.362131
 Sum of Mulliken charges =   1.00000

 Dipole moment (field-independent basis, Debye):
    X=            -19.6570    Y=             -3.7692    Z=              0.6021  Tot=             20.0241
 Quadrupole moment (field-independent basis, Debye-Ang):
   XX=            -76.0532   YY=           -134.3101   ZZ=           -151.5745
   XY=            -23.9514   XZ=            -35.2639   YZ=              0.7183

  Exact polarizability: 425.873  19.439 261.875  -2.223  13.032 171.600
 Approx polarizability: 453.945  34.234 357.494   8.834  26.500 243.414

                      1                      2                      3
                      A                      A                      A
 Frequencies --     20.0586                24.0116                29.5888
 Red. masses --      7.7994                 7.2280                 5.4108
 Frc consts  --      0.0018                 0.0025                 0.0028
 IR Inten    --      2.5509                 2.2375                 4.3741

                      4                      5                      6
                      A                      A                      A
 Frequencies --     36.1169                45.0990                65.1224
 Red. masses --      6.6473                 7.8296                 5.2454
 Frc consts  --      0.0051                 0.0094                 0.0131
 IR Inten    --      3.6365                 8.0129                 1.0190

                      7                      8                      9
                      A                      A                      A
 Frequencies --     71.3954                90.6365               103.9390
 Red. masses --      5.2202                 4.9353                 4.1108
 Frc consts  --      0.0157                 0.0239                 0.0262
 IR Inten    --      0.1066                 0.0972                 0.6501

                     10                     11                     12
                      A                      A                      A
 Frequencies --    108.1893               162.8505               165.2363
 Red. masses --      4.9002                 2.2261                 2.4610
 Frc consts  --      0.0338                 0.0348                 0.0396
 IR Inten    --      2.9644                 0.7163                 1.1020

                     13                     14                     15
                      A                      A                      A
 Frequencies --    169.6583               180.7633               186.4057
 Red. masses --      1.9464                 4.8060                 2.2077
 Frc consts  --      0.0330                 0.0925                 0.0452
 IR Inten    --      2.6977                 2.5866                11.7584

                     16                     17                     18
                      A                      A                      A
 Frequencies --    208.7740               224.9886               256.2986
 Red. masses --      1.6391                 3.6391                 5.2902
 Frc consts  --      0.0421                 0.1085                 0.2047
 IR Inten    --      1.1741                 0.1078                 1.2791

                     19                     20                     21
                      A                      A                      A
 Frequencies --    267.4809               287.4888               302.4893
 Red. masses --      4.1643                 3.5258                 2.6528
 Frc consts  --      0.1755                 0.1717                 0.1430
 IR Inten    --      5.3992                 2.5487                38.5730

                     22                     23                     24
                      A                      A                      A
 Frequencies --    325.8731               337.5787               367.5075
 Red. masses --      2.2870                 3.4412                 3.2218
 Frc consts  --      0.1431                 0.2311                 0.2564
 IR Inten    --     51.0569                 3.4627                52.2743

                     25                     26                     27
                      A                      A                      A
 Frequencies --    384.4663               388.9907               404.5763
 Red. masses --      4.4224                 4.2413                 4.3668
 Frc consts  --      0.3851                 0.3781                 0.4211
 IR Inten    --     11.0271                 0.9758                19.5113

                     28                     29                     30
                      A                      A                      A
 Frequencies --    413.9882               434.6843               438.1895
 Red. masses --      3.1685                 4.6900                 3.7927
 Frc consts  --      0.3200                 0.5221                 0.4291
 IR Inten    --      2.4118                 3.7939                 4.1401

                     31                     32                     33
                      A                      A                      A
 Frequencies --    446.9467               458.0531               473.4134
 Red. masses --      3.6388                 4.1019                 1.3746
 Frc consts  --      0.4283                 0.5071                 0.1815
 IR Inten    --      1.3797                60.0217               119.2224

                     34                     35                     36
                      A                      A                      A
 Frequencies --    488.4572               513.3677               535.7271
 Red. masses --      5.4800                 4.2491                 3.3463
 Frc consts  --      0.7703                 0.6598                 0.5659
 IR Inten    --    119.9493                 7.4141                57.2685

                     37                     38                     39
                      A                      A                      A
 Frequencies --    539.1906               561.4112               597.1405
 Red. masses --      4.8358                 3.2349                 4.5471
 Frc consts  --      0.8283                 0.6007                 0.9553
 IR Inten    --     11.1684                 0.1226                33.4403

                     40                     41                     42
                      A                      A                      A
 Frequencies --    629.4837               635.9991               647.8719
 Red. masses --      5.5364                 4.7177                 3.4264
 Frc consts  --      1.2926                 1.1243                 0.8474
 IR Inten    --      2.1082                 0.4694                 8.9128

                     43                     44                     45
                      A                      A                      A
 Frequencies --    672.0233               675.4497               710.2821
 Red. masses --      5.7868                 3.9293                 4.8313
 Frc consts  --      1.5398                 1.0562                 1.4361
 IR Inten    --      5.6132                24.7714                10.6876

                     46                     47                     48
                      A                      A                      A
 Frequencies --    719.7768               740.6057               760.0726
 Red. masses --      4.8737                 4.1165                 5.2999
 Frc consts  --      1.4877                 1.3303                 1.8040
 IR Inten    --      0.6344                 6.5910                 1.2745

                     49                     50                     51
                      A                      A                      A
 Frequencies --    768.9426               788.2238               843.7808
 Red. masses --      5.1893                 4.9097                 1.4753
 Frc consts  --      1.8078                 1.7972                 0.6189
 IR Inten    --     76.6871                14.2298                21.9355

                     52                     53                     54
                      A                      A                      A
 Frequencies --    851.5757               855.7456               861.8938
 Red. masses --      3.1662                 1.5191                 1.6752
 Frc consts  --      1.3528                 0.6554                 0.7332
 IR Inten    --     66.8663                14.9511                12.2065

                     55                     56                     57
                      A                      A                      A
 Frequencies --    869.5013               891.6643               896.6783
 Red. masses --      3.3357                 1.9139                 4.8063
 Frc consts  --      1.4859                 0.8965                 2.2769
 IR Inten    --    127.6983                49.7000                33.6368

                     58                     59                     60
                      A                      A                      A
 Frequencies --    913.7425               917.0065               944.9640
 Red. masses --      1.6638                 2.0292                 2.9583
 Frc consts  --      0.8184                 1.0054                 1.5564
 IR Inten    --      9.9875                53.6595                26.5516

                     61                     62                     63
                      A                      A                      A
 Frequencies --    975.0784               995.7889               996.8846
 Red. masses --      1.3480                 1.9364                 1.4052
 Frc consts  --      0.7551                 1.1313                 0.8227
 IR Inten    --      4.1501                 7.3089                58.1168

                     64                     65                     66
                      A                      A                      A
 Frequencies --   1008.3823              1013.4662              1023.5438
 Red. masses --      1.5473                 1.5538                 1.3836
 Frc consts  --      0.9270                 0.9403                 0.8540
 IR Inten    --      6.2654                47.8832                 1.9061

                     67                     68                     69
                      A                      A                      A
 Frequencies --   1027.7484              1040.1136              1054.7126
 Red. masses --      2.8217                 2.4785                 1.5391
 Frc consts  --      1.7560                 1.5798                 1.0088
 IR Inten    --     34.2467                 2.9366                 0.1192

                     70                     71                     72
                      A                      A                      A
 Frequencies --   1090.8101              1102.3208              1120.9103
 Red. masses --      2.1760                 3.0350                 1.2241
 Frc consts  --      1.5255                 2.1728                 0.9061
 IR Inten    --     10.2190               297.2995               132.6786

                     73                     74                     75
                      A                      A                      A
 Frequencies --   1138.6470              1153.3611              1165.3505
 Red. masses --      1.5621                 1.3286                 1.5934
 Frc consts  --      1.1933                 1.0413                 1.2750
 IR Inten    --      3.9547                 5.7592                22.8429

                     76                     77                     78
                      A                      A                      A
 Frequencies --   1172.0880              1215.3910              1221.6497
 Red. masses --      2.2151                 1.1901                 2.0655
 Frc consts  --      1.7930                 1.0358                 1.8162
 IR Inten    --      1.2446                 7.4407                48.4962

                     79                     80                     81
                      A                      A                      A
 Frequencies --   1245.7837              1255.4848              1267.7163
 Red. masses --      2.1632                 1.5447                 2.0918
 Frc consts  --      1.9780                 1.4346                 1.9807
 IR Inten    --     46.5232                28.5758                36.7743

                     82                     83                     84
                      A                      A                      A
 Frequencies --   1303.0068              1312.4962              1319.2553
 Red. masses --      1.7295                 2.2560                 5.2684
 Frc consts  --      1.7300                 2.2897                 5.4024
 IR Inten    --     15.4547                47.4879               154.7184

                     85                     86                     87
                      A                      A                      A
 Frequencies --   1328.7448              1337.1786              1340.8547
 Red. masses --      2.8764                 1.7265                 2.9562
 Frc consts  --      2.9922                 1.8189                 3.1315
 IR Inten    --     65.5401                30.6691               250.7116

                     88                     89                     90
                      A                      A                      A
 Frequencies --   1354.2357              1368.4648              1372.3920
 Red. masses --      4.6724                 1.2897                 2.3917
 Frc consts  --      5.0487                 1.4230                 2.6540
 IR Inten    --     10.4967                42.6064                15.4602

                     91                     92                     93
                      A                      A                      A
 Frequencies --   1409.3392              1431.2535              1438.2322
 Red. masses --      2.0767                 1.8077                 1.0439
 Frc consts  --      2.4303                 2.1817                 1.2722
 IR Inten    --     27.0228                 1.5194                 2.7131

                     94                     95                     96
                      A                      A                      A
 Frequencies --   1442.0897              1452.0281              1472.1952
 Red. masses --      1.0497                 2.8683                 1.1128
 Frc consts  --      1.2862                 3.5631                 1.4211
 IR Inten    --     16.5932                42.9210                 9.2536

                     97                     98                     99
                      A                      A                      A
 Frequencies --   1486.7627              1487.9125              1497.8474
 Red. masses --      1.0930                 3.5987                 1.0840
 Frc consts  --      1.4234                 4.6941                 1.4329
 IR Inten    --     14.6052                14.1079                19.6568

                    100                    101                    102
                      A                      A                      A
 Frequencies --   1521.9920              1530.6250              1618.9239
 Red. masses --      2.4117                 3.5469                 6.9154
 Frc consts  --      3.2915                 4.8960                10.6787
 IR Inten    --     19.2062               184.7941                 5.1070

                    103                    104                    105
                      A                      A                      A
 Frequencies --   1639.9353              1666.8828              1679.0994
 Red. masses --      5.5642                 7.7570                 7.2196
 Frc consts  --      8.8168                12.6986                11.9927
 IR Inten    --    433.9908                25.2873               165.0467

                    106                    107                    108
                      A                      A                      A
 Frequencies --   1708.7390              1713.6774              1913.4102
 Red. masses --      8.9610                 8.7195                10.7877
 Frc consts  --     15.4156                15.0869                23.2700
 IR Inten    --      5.4118                83.3618               445.5930

                    109                    110                    111
                      A                      A                      A
 Frequencies --   3060.7882              3079.4906              3092.0020
 Red. masses --      1.0396                 1.0276                 1.0595
 Frc consts  --      5.7381                 5.7418                 5.9683
 IR Inten    --      8.8252                31.7383                 1.5987

                    112                    113                    114
                      A                      A                      A
 Frequencies --   3115.9596              3143.2648              3163.3037
 Red. masses --      1.1009                 1.1047                 1.0978
 Frc consts  --      6.2976                 6.4307                 6.4722
 IR Inten    --      4.1118                 1.5272                 9.8792

                    115                    116                    117
                      A                      A                      A
 Frequencies --   3176.5272              3191.7573              3200.2924
 Red. masses --      1.0876                 1.1087                 1.1088
 Frc consts  --      6.4661                 6.6546                 6.6910
 IR Inten    --      0.9270                18.1514                11.5113

                    118                    119                    120
                      A                      A                      A
 Frequencies --   3207.2166              3215.7555              3217.0627
 Red. masses --      1.0908                 1.0898                 1.0944
 Frc consts  --      6.6105                 6.6402                 6.6733
 IR Inten    --      1.1392                 3.1866                 4.4052

                    121                    122                    123
                      A                      A                      A
 Frequencies --   3224.0946              3226.6074              3227.4253
 Red. masses --      1.0934                 1.0919                 1.0963
 Frc consts  --      6.6962                 6.6974                 6.7280
 IR Inten    --      2.5828                14.1389                 1.6652

                    124                    125                    126
                      A                      A                      A
 Frequencies --   3240.3041              3751.5607              3854.8045
 Red. masses --      1.0955                 1.0666                 1.0663
 Frc consts  --      6.7771                 8.8449                 9.3358
 IR Inten    --      0.2126               235.0196                68.0240

 - Thermochemistry -
 -------------------
 Temperature     0.001 Kelvin.  Pressure   1.00000 Atm.
 Atom     1 has atomic number  8 and mass  15.99491

 Molecular mass:   373.09098 amu.
 Principal axes and moments of inertia in atomic units:
                           1         2         3
     Eigenvalues --  4742.93065********************
           X            0.99993  -0.00959  -0.00654
           Y            0.00969   0.99985   0.01444
           Z            0.00640  -0.01450   0.99987
 This molecule is an asymmetric top.
 Rotational symmetry number  1.
 Warning -- assumption of classical behavior for rotation
           may cause significant error
 Rotational temperatures (Kelvin)      0.01826     0.00382     0.00341
 Rotational constants (GHZ):           0.38051     0.07964     0.07111
 Zero-point vibrational energy     894402.7 (Joules/Mol)
                                  213.76739 (Kcal/Mol)
 Vibrational temperatures:     28.86    34.55    42.57    51.96    64.89
          (Kelvin)             93.70   102.72   130.41   149.55   155.66
                              234.31   237.74   244.10   260.08   268.20
                              300.38   323.71   368.76   384.85   413.63
                              435.21   468.86   485.70   528.76   553.16
                              559.67   582.09   595.64   625.41   630.46
                              643.06   659.04   681.14   702.78   738.62
                              770.79   775.77   807.75   859.15   905.69
                              915.06   932.14   966.89   971.82  1021.94
                             1035.60  1065.57  1093.57  1106.34  1134.08
                             1214.01  1225.23  1231.23  1240.07  1251.02
                             1282.91  1290.12  1314.67  1319.37  1359.59
                             1402.92  1432.72  1434.29  1450.84  1458.15
                             1472.65  1478.70  1496.49  1517.50  1569.43
                             1585.99  1612.74  1638.26  1659.43  1676.68
                             1686.37  1748.68  1757.68  1792.40  1806.36
                             1823.96  1874.74  1888.39  1898.11  1911.77
                             1923.90  1929.19  1948.44  1968.92  1974.57
                             2027.72  2059.25  2069.30  2074.85  2089.14
                             2118.16  2139.12  2140.77  2155.07  2189.81
                             2202.23  2329.27  2359.50  2398.27  2415.85
                             2458.49  2465.60  2752.97  4403.79  4430.70
                             4448.70  4483.17  4522.46  4551.29  4570.31
                             4592.23  4604.51  4614.47  4626.75  4628.64
                             4638.75  4642.37  4643.55  4662.07  5397.66
                             5546.20

 Zero-point correction=                           0.340660 (Hartree/Particle)
 Thermal correction to Energy=                    0.340660
 Thermal correction to Enthalpy=                  0.340660
 Thermal correction to Gibbs Free Energy=         0.340660
 Sum of electronic and zero-point Energies=          -1571.068480
 Sum of electronic and thermal Energies=             -1571.068480
 Sum of electronic and thermal Enthalpies=           -1571.068480
 Sum of electronic and thermal Free Energies=        -1571.068480

                     E (Thermal)             CV                S
                      KCal/Mol        Cal/Mol-Kelvin    Cal/Mol-Kelvin
 Total                  213.767              5.962            -20.301
 Electronic               0.000              0.000              0.000
 Translational            0.000              2.981            -18.981
 Rotational               0.000              2.981             -1.320
 Vibrational            213.767              0.000              0.000

                           ! Non-Optimized Parameters !
 Normal termination of Gaussian 16 at Mon Oct 14 00:11:56 2019.
