 Gaussian 16, Revision A.03,
 Gaussian 16:  ES64L-G16RevA.03 25-Dec-2016

 -------------------------------------------------------------------
 #P opt freq m062x/6-311++g(d,p) geom=connectivity temperature=0.001
 -------------------------------------------------------------------

 -------------------
 Title Card Required
 -------------------
 Symbolic Z-matrix:
 Charge =  0 Multiplicity = 1

 SCF Done:  E(RM062X) =  -820.016346323     A.U. after   16 cycles
 SCF Done:  E(RM062X) =  -820.054276552     A.U. after   15 cycles
 SCF Done:  E(RM062X) =  -820.061782781     A.U. after   15 cycles
 SCF Done:  E(RM062X) =  -820.064185559     A.U. after   14 cycles
 SCF Done:  E(RM062X) =  -820.064362518     A.U. after   14 cycles
 SCF Done:  E(RM062X) =  -820.064381755     A.U. after   12 cycles
 SCF Done:  E(RM062X) =  -820.064382774     A.U. after   11 cycles
 SCF Done:  E(RM062X) =  -820.064382944     A.U. after   10 cycles
 Optimization completed.
    -- Stationary point found.
 Normal termination of Gaussian 16 at Sun Oct 13 22:05:41 2019.

 ----------------------------------------------------------------------
 #P Geom=AllCheck Guess=TCheck SCRF=Check GenChk RM062X/6-311++G(d,p) F
 req
 ----------------------------------------------------------------------

 Structure from the checkpoint file:  "27.chk"
 -------------------
 Title Card Required
 -------------------
 Charge =  0 Multiplicity = 1

                         Standard orientation:
 ---------------------------------------------------------------------
 Center     Atomic      Atomic             Coordinates (Angstroms)
 Number     Number       Type             X           Y           Z
 ---------------------------------------------------------------------
      1          8           0       -1.891525   -1.268889   -0.743284
      2         16           0       -1.465934   -0.000132   -0.170202
      3          6           0        0.319165   -0.000067   -0.097494
      4          6           0        0.990130    1.216074   -0.057832
      5          6           0        2.377273    1.209038    0.036445
      6          6           0        3.065872    0.000079    0.086838
      7          6           0        2.377375   -1.208958    0.036625
      8          6           0        0.990238   -1.216147   -0.057595
      9          6           0       -1.948748    0.001231    1.552971
     10          8           0       -1.891485    1.267673   -0.745386
     11          1           0        0.429322    2.141271   -0.123971
     12          1           0        2.920363    2.145783    0.061208
     13          1           0        4.147099    0.000118    0.157193
     14          1           0        2.920579   -2.145634    0.061523
     15          1           0        0.429438   -2.141365   -0.123466
     16          1           0       -1.558610   -0.900021    2.022460
     17          1           0       -1.558373    0.902918    2.021400
     18          1           0       -3.038612    0.001277    1.556496
 ---------------------------------------------------------------------

 SCF Done:  E(RM062X) =  -820.064382944     A.U. after    1 cycles

 The electronic state is 1-A.
 Alpha  occ. eigenvalues --  -90.10179 -19.61656 -19.61655 -10.59090 -10.58270
 Alpha  occ. eigenvalues --  -10.57665 -10.57661 -10.57315 -10.57124 -10.57107
 Alpha  occ. eigenvalues --   -8.44556  -6.36759  -6.36691  -6.36659  -1.23828
 Alpha  occ. eigenvalues --   -1.12966  -0.99649  -0.90120  -0.87514  -0.86493
 Alpha  occ. eigenvalues --   -0.75468  -0.72093  -0.67953  -0.63092  -0.58165
 Alpha  occ. eigenvalues --   -0.56680  -0.56372  -0.54098  -0.53991  -0.51952
 Alpha  occ. eigenvalues --   -0.51074  -0.50546  -0.46877  -0.45344  -0.43402
 Alpha  occ. eigenvalues --   -0.40673  -0.40177  -0.38022  -0.36060  -0.34077
 Alpha  occ. eigenvalues --   -0.33688
 Alpha virt. eigenvalues --   -0.02408  -0.01115  -0.00821   0.00151   0.00586
 Alpha virt. eigenvalues --    0.02108   0.02850   0.03224   0.04594   0.04737
 Alpha virt. eigenvalues --    0.05551   0.05779   0.07563   0.07941   0.08444

 Mulliken charges:
               1
     1  O   -0.173256
     2  S    0.094259
     3  C    0.307789
     4  C   -0.165535
     5  C   -0.401347
     6  C   -0.221513
     7  C   -0.401138
     8  C   -0.166379
     9  C   -0.524824
    10  O   -0.173122
    11  H    0.261902
    12  H    0.220733
    13  H    0.199789
    14  H    0.220758
    15  H    0.261925
    16  H    0.214813
    17  H    0.214797
    18  H    0.230349
 Sum of Mulliken charges =   0.00000

 Dipole moment (field-independent basis, Debye):
    X=              3.7876    Y=              0.0030    Z=              3.9473  Tot=              5.4705
 Quadrupole moment (field-independent basis, Debye-Ang):
   XX=            -62.7529   YY=            -65.8804   ZZ=            -68.4436
   XY=             -0.0070   XZ=             -8.4522   YZ=              0.0053

  Exact polarizability: 128.025  -0.002 104.321  -0.568  -0.002  72.449
 Approx polarizability: 146.708   0.001 150.068   4.042  -0.010  92.250

                      1                      2                      3
                      A                      A                      A
 Frequencies --     46.0340               110.1260               179.6417
 Red. masses --      4.3340                 3.7901                 2.4187
 Frc consts  --      0.0054                 0.0271                 0.0460
 IR Inten    --      1.8391                 4.5277                 0.2211

                      4                      5                      6
                      A                      A                      A
 Frequencies --    211.0436               258.2576               307.3715
 Red. masses --      1.3965                 3.5261                 4.1211
 Frc consts  --      0.0366                 0.1386                 0.2294
 IR Inten    --      0.3989                 0.1766                 0.0043

                      7                      8                      9
                      A                      A                      A
 Frequencies --    310.3433               411.4042               418.9094
 Red. masses --      8.7044                 2.9043                 5.5584
 Frc consts  --      0.4939                 0.2896                 0.5747
 IR Inten    --      3.6985                 0.0093                 1.0242

                     10                     11                     12
                      A                      A                      A
 Frequencies --    439.2914               521.0237               541.5629
 Red. masses --      4.7759                 6.2957                 4.9440
 Frc consts  --      0.5430                 1.0070                 0.8543
 IR Inten    --     14.8292                53.4075                65.8803

                     13                     14                     15
                      A                      A                      A
 Frequencies --    625.1884               706.7558               720.6076
 Red. masses --      6.4159                 5.9128                 1.9395
 Frc consts  --      1.4775                 1.7401                 0.5934
 IR Inten    --      0.0103                 7.3885                34.8231

                     16                     17                     18
                      A                      A                      A
 Frequencies --    756.9539               797.9974               876.8054
 Red. masses --      2.3692                 2.8150                 1.2413
 Frc consts  --      0.7998                 1.0562                 0.5622
 IR Inten    --    104.3046                22.5516                 0.2323

                     19                     20                     21
                      A                      A                      A
 Frequencies --    963.6224               982.2997               985.3920
 Red. masses --      1.3591                 1.3418                 1.4592
 Frc consts  --      0.7435                 0.7628                 0.8348
 IR Inten    --      3.8074                 0.3158                45.4270

                     22                     23                     24
                      A                      A                      A
 Frequencies --   1011.8663              1015.9823              1026.8540
 Red. masses --      1.3686                 6.1017                 1.3172
 Frc consts  --      0.8256                 3.7109                 0.8183
 IR Inten    --      0.1047                 1.9298                 0.0529

                     25                     26                     27
                      A                      A                      A
 Frequencies --   1055.1157              1108.7887              1109.4710
 Red. masses --      2.5585                 1.4846                 3.8192
 Frc consts  --      1.6782                 1.0754                 2.7699
 IR Inten    --      2.8431                 6.8193                47.8154

                     28                     29                     30
                      A                      A                      A
 Frequencies --   1161.1790              1182.3973              1201.3307
 Red. masses --      5.4659                 1.1544                 1.1592
 Frc consts  --      4.3422                 0.9509                 0.9856
 IR Inten    --    224.9717                 0.5055                 0.5173

                     31                     32                     33
                      A                      A                      A
 Frequencies --   1326.8148              1330.6518              1347.6290
 Red. masses --      3.9485                 2.8705                 2.5197
 Frc consts  --      4.0955                 2.9946                 2.6961
 IR Inten    --     31.6230               150.1985                39.7729

                     34                     35                     36
                      A                      A                      A
 Frequencies --   1351.4953              1452.7163              1455.8180
 Red. masses --      1.2310                 1.0465                 1.0505
 Frc consts  --      1.3248                 1.3013                 1.3118
 IR Inten    --     17.6843                 3.9212                 8.3274

                     37                     38                     39
                      A                      A                      A
 Frequencies --   1489.1929              1520.1253              1660.2747
 Red. masses --      2.2818                 2.1927                 5.8089
 Frc consts  --      2.9815                 2.9852                 9.4342
 IR Inten    --     17.5180                 3.2963                 1.3219

                     40                     41                     42
                      A                      A                      A
 Frequencies --   1662.2248              3086.8544              3193.0874
 Red. masses --      6.3526                 1.0287                 1.1061
 Frc consts  --     10.3414                 5.7750                 6.6447
 IR Inten    --      0.1414                 0.6275                 0.1258

                     43                     44                     45
                      A                      A                      A
 Frequencies --   3203.1556              3206.8614              3214.1992
 Red. masses --      1.1083                 1.0866                 1.0890
 Frc consts  --      6.7000                 6.5837                 6.6284
 IR Inten    --      0.0012                 1.0525                 4.7006

                     46                     47                     48
                      A                      A                      A
 Frequencies --   3218.5457              3226.5201              3232.6109
 Red. masses --      1.0926                 1.0957                 1.0992
 Frc consts  --      6.6687                 6.7209                 6.7677
 IR Inten    --      0.1521                 1.0129                 9.2308

 - Thermochemistry -
 -------------------
 Temperature     0.001 Kelvin.  Pressure   1.00000 Atm.
 Atom     1 has atomic number  8 and mass  15.99491

 Molecular mass:   156.02450 amu.
 Principal axes and moments of inertia in atomic units:
                           1         2         3
     Eigenvalues --   715.809722175.974272475.71613
           X            0.99980  -0.00002  -0.02002
           Y            0.00002   1.00000   0.00006
           Z            0.02002  -0.00007   0.99980
 This molecule is an asymmetric top.
 Rotational symmetry number  1.
 Warning -- assumption of classical behavior for rotation
           may cause significant error
 Rotational temperatures (Kelvin)      0.12100     0.03980     0.03499
 Rotational constants (GHZ):           2.52126     0.82939     0.72898
 Zero-point vibrational energy     366191.2 (Joules/Mol)
                                   87.52181 (Kcal/Mol)
 Vibrational temperatures:     66.23   158.45   258.46   303.64   371.58
          (Kelvin)            442.24   446.51   591.92   602.72   632.04
                              749.64   779.19   899.51  1016.86  1036.79
                             1089.09  1148.14  1261.53  1386.44  1413.31
                             1417.76  1455.85  1461.77  1477.41  1518.08
                             1595.30  1596.28  1670.68  1701.21  1728.45
                             1908.99  1914.51  1938.94  1944.50  2090.13
                             2094.60  2142.62  2187.12  2388.77  2391.57
                             4441.30  4594.14  4608.63  4613.96  4624.52
                             4630.77  4642.24  4651.01

 Zero-point correction=                           0.139475 (Hartree/Particle)
 Thermal correction to Energy=                    0.139475
 Thermal correction to Enthalpy=                  0.139475
 Thermal correction to Gibbs Free Energy=         0.139475
 Sum of electronic and zero-point Energies=           -819.924908
 Sum of electronic and thermal Energies=              -819.924908
 Sum of electronic and thermal Enthalpies=            -819.924908
 Sum of electronic and thermal Free Energies=         -819.924908

                     E (Thermal)             CV                S
                      KCal/Mol        Cal/Mol-Kelvin    Cal/Mol-Kelvin
 Total                   87.522              5.962            -29.419
 Electronic               0.000              0.000              0.000
 Translational            0.000              2.981            -21.580
 Rotational               0.000              2.981             -7.840
 Vibrational             87.522              0.000              0.000

 Optimization completed.
    -- Stationary point found.
 Normal termination of Gaussian 16 at Sun Oct 13 22:07:42 2019.
