 Gaussian 16, Revision A.03,
 Gaussian 16:  ES64L-G16RevA.03 25-Dec-2016

 -------------------------------------------------------------------
 #P opt freq m062x/6-311++g(d,p) geom=connectivity temperature=0.001
 -------------------------------------------------------------------

 -------------------
 Title Card Required
 -------------------
 Symbolic Z-matrix:
 Charge =  1 Multiplicity = 1

 SCF Done:  E(RM062X) =  -820.352265023     A.U. after   17 cycles
 SCF Done:  E(RM062X) =  -820.383338684     A.U. after   15 cycles
 SCF Done:  E(RM062X) =  -820.388813851     A.U. after   15 cycles
 SCF Done:  E(RM062X) =  -820.390866843     A.U. after   13 cycles
 SCF Done:  E(RM062X) =  -820.391245680     A.U. after   14 cycles
 SCF Done:  E(RM062X) =  -820.391454163     A.U. after   14 cycles
 SCF Done:  E(RM062X) =  -820.391796889     A.U. after   16 cycles
 SCF Done:  E(RM062X) =  -820.392280417     A.U. after   16 cycles
 SCF Done:  E(RM062X) =  -820.392794103     A.U. after   13 cycles
 SCF Done:  E(RM062X) =  -820.393542991     A.U. after   15 cycles
 SCF Done:  E(RM062X) =  -820.393672874     A.U. after   13 cycles
 SCF Done:  E(RM062X) =  -820.393697128     A.U. after   12 cycles
 SCF Done:  E(RM062X) =  -820.393702056     A.U. after   11 cycles
 SCF Done:  E(RM062X) =  -820.393702260     A.U. after   11 cycles
 SCF Done:  E(RM062X) =  -820.393702376     A.U. after    9 cycles
 Optimization completed.
    -- Stationary point found.
 Normal termination of Gaussian 16 at Sun Oct 13 22:08:21 2019.

 ----------------------------------------------------------------------
 #P Geom=AllCheck Guess=TCheck SCRF=Check GenChk RM062X/6-311++G(d,p) F
 req
 ----------------------------------------------------------------------

 Structure from the checkpoint file:  "27_p.chk"
 -------------------
 Title Card Required
 -------------------
 Charge =  1 Multiplicity = 1

                         Standard orientation:
 ---------------------------------------------------------------------
 Center     Atomic      Atomic             Coordinates (Angstroms)
 Number     Number       Type             X           Y           Z
 ---------------------------------------------------------------------
      1          8           0        1.885205    0.977694   -1.054139
      2         16           0        1.388447   -0.154265   -0.056959
      3          6           0       -0.360912   -0.041966   -0.044137
      4          6           0       -1.066790   -1.241017    0.024130
      5          6           0       -2.453284   -1.168143    0.075222
      6          6           0       -3.088555    0.070151    0.063483
      7          6           0       -2.355676    1.255738   -0.003909
      8          6           0       -0.971379    1.213856   -0.058140
      9          6           0        2.065081    0.518978    1.433084
     10          8           0        1.853489   -1.480730   -0.352310
     11          1           0       -0.547959   -2.192439    0.023009
     12          1           0       -3.034276   -2.080291    0.121197
     13          1           0       -4.170154    0.115340    0.103886
     14          1           0       -2.863704    2.211440   -0.020593
     15          1           0       -0.389387    2.126207   -0.127369
     16          1           0        1.679369    1.529229    1.565349
     17          1           0        1.744598   -0.145201    2.236297
     18          1           0        3.148994    0.508763    1.310733
     19          1           0        1.696902    0.773890   -1.987966
 ---------------------------------------------------------------------

 SCF Done:  E(RM062X) =  -820.393702376     A.U. after    1 cycles

 The electronic state is 1-A.
 Alpha  occ. eigenvalues --  -90.31586 -19.88651 -19.82984 -10.76831 -10.76503
 Alpha  occ. eigenvalues --  -10.73564 -10.73225 -10.71500 -10.71382 -10.71162
 Alpha  occ. eigenvalues --   -8.66207  -6.58492  -6.58261  -6.58139  -1.46255
 Alpha  occ. eigenvalues --   -1.37104  -1.15854  -1.10467  -1.03604  -1.02554
 Alpha  occ. eigenvalues --   -0.95411  -0.89151  -0.86941  -0.82094  -0.79045
 Alpha  occ. eigenvalues --   -0.77804  -0.73893  -0.71312  -0.69478  -0.69340
 Alpha  occ. eigenvalues --   -0.68614  -0.68265  -0.67008  -0.64638  -0.61967
 Alpha  occ. eigenvalues --   -0.60350  -0.59769  -0.58093  -0.56732  -0.49376
 Alpha  occ. eigenvalues --   -0.48375
 Alpha virt. eigenvalues --   -0.19339  -0.15194  -0.14063  -0.12388  -0.10799
 Alpha virt. eigenvalues --   -0.10015  -0.09742  -0.09225  -0.08419  -0.08128
 Alpha virt. eigenvalues --   -0.07312  -0.06960  -0.05862  -0.05477  -0.04863

 Mulliken charges:
               1
     1  O   -0.125734
     2  S   -0.015298
     3  C    0.291414
     4  C   -0.083895
     5  C   -0.337322
     6  C   -0.128031
     7  C   -0.342458
     8  C   -0.215313
     9  C   -0.509978
    10  O   -0.076511
    11  H    0.291923
    12  H    0.267122
    13  H    0.249652
    14  H    0.258370
    15  H    0.277516
    16  H    0.275929
    17  H    0.272302
    18  H    0.280358
    19  H    0.369952
 Sum of Mulliken charges =   1.00000

 Dipole moment (field-independent basis, Debye):
    X=              0.1146    Y=              2.3400    Z=              0.8969  Tot=              2.5086
 Quadrupole moment (field-independent basis, Debye-Ang):
   XX=            -38.4304   YY=            -57.1247   ZZ=            -55.2520
   XY=              5.1364   XZ=              2.8895   YZ=             -1.1076

  Exact polarizability: 128.581   0.505 100.205   1.046  -0.002  68.162
 Approx polarizability: 150.543  -1.305 145.036  -1.918  -0.358  87.449

                      1                      2                      3
                      A                      A                      A
 Frequencies --     54.7150               104.9623               172.8465
 Red. masses --      4.1752                 3.4625                 3.4308
 Frc consts  --      0.0074                 0.0225                 0.0604
 IR Inten    --      1.4068                 0.1590                 3.7507

                      4                      5                      6
                      A                      A                      A
 Frequencies --    206.1556               247.6949               291.9077
 Red. masses --      1.2124                 2.9299                 3.3189
 Frc consts  --      0.0304                 0.1059                 0.1666
 IR Inten    --      1.1883                 5.2315                 8.4330

                      7                      8                      9
                      A                      A                      A
 Frequencies --    314.4245               354.7488               387.2191
 Red. masses --      4.1746                 1.5821                 4.4406
 Frc consts  --      0.2432                 0.1173                 0.3923
 IR Inten    --      2.8980                89.2957                10.9595

                     10                     11                     12
                      A                      A                      A
 Frequencies --    401.0409               426.3852               484.0476
 Red. masses --      2.9668                 3.7252                 4.6355
 Frc consts  --      0.2811                 0.3990                 0.6399
 IR Inten    --      0.0875                24.3779                75.7611

                     13                     14                     15
                      A                      A                      A
 Frequencies --    511.3964               617.1321               687.3719
 Red. masses --      5.4145                 6.4424                 2.9611
 Frc consts  --      0.8343                 1.4456                 0.8243
 IR Inten    --     94.1721                 0.5209                19.2980

                     16                     17                     18
                      A                      A                      A
 Frequencies --    692.7744               759.9909               782.0174
 Red. masses --      5.8688                 1.8193                 2.4613
 Frc consts  --      1.6595                 0.6191                 0.8868
 IR Inten    --      0.3673                87.1371                17.8128

                     19                     20                     21
                      A                      A                      A
 Frequencies --    862.6029               873.4121               967.8349
 Red. masses --      1.5934                 3.0843                 1.2770
 Frc consts  --      0.6986                 1.3862                 0.7048
 IR Inten    --     59.7939               131.4335                 1.0108

                     22                     23                     24
                      A                      A                      A
 Frequencies --    997.6922              1006.8509              1018.1099
 Red. masses --      1.4704                 2.9248                 1.3671
 Frc consts  --      0.8623                 1.7469                 0.8349
 IR Inten    --     28.9483                 9.9529                 0.8685

                     25                     26                     27
                      A                      A                      A
 Frequencies --   1021.5290              1044.0283              1051.2035
 Red. masses --      1.8458                 1.3341                 2.7066
 Frc consts  --      1.1348                 0.8568                 1.7622
 IR Inten    --     31.5663                 0.0349                 4.0823

                     28                     29                     30
                      A                      A                      A
 Frequencies --   1100.6261              1121.7604              1122.9931
 Red. masses --      2.9020                 1.2203                 1.5113
 Frc consts  --      2.0712                 0.9047                 1.1230
 IR Inten    --     89.2312               123.5712                 4.3584

                     31                     32                     33
                      A                      A                      A
 Frequencies --   1195.5715              1212.4026              1323.6246
 Red. masses --      1.1376                 1.1520                 6.7700
 Frc consts  --      0.9581                 0.9977                 6.9883
 IR Inten    --      0.8346                 0.6245               165.8054

                     34                     35                     36
                      A                      A                      A
 Frequencies --   1339.0801              1354.6112              1369.4377
 Red. masses --      2.4081                 1.9366                 1.2956
 Frc consts  --      2.5441                 2.0937                 1.4315
 IR Inten    --      0.4442                 4.3579                33.4116

                     37                     38                     39
                      A                      A                      A
 Frequencies --   1438.1792              1442.4094              1492.6161
 Red. masses --      1.0427                 1.0472                 2.2766
 Frc consts  --      1.2706                 1.2836                 2.9884
 IR Inten    --      5.2442                14.7197                29.3877

                     40                     41                     42
                      A                      A                      A
 Frequencies --   1511.0882              1641.1298              1652.9730
 Red. masses --      2.0218                 5.4554                 5.9942
 Frc consts  --      2.7199                 8.6569                 9.6497
 IR Inten    --      2.9347                14.2629                 0.5029

                     43                     44                     45
                      A                      A                      A
 Frequencies --   3078.6266              3190.7102              3200.2756
 Red. masses --      1.0276                 1.1088                 1.1089
 Frc consts  --      5.7385                 6.6506                 6.6916
 IR Inten    --     26.1904                18.8287                12.0987

                     46                     47                     48
                      A                      A                      A
 Frequencies --   3210.6877              3221.3126              3226.1900
 Red. masses --      1.0914                 1.0899                 1.0927
 Frc consts  --      6.6290                 6.6635                 6.7011
 IR Inten    --      2.0799                 3.0724                 5.4745

                     49                     50                     51
                      A                      A                      A
 Frequencies --   3236.9362              3241.5834              3746.6560
 Red. masses --      1.0956                 1.0994                 1.0667
 Frc consts  --      6.7638                 6.8065                 8.8223
 IR Inten    --      5.6582                 0.9910               273.6228

 - Thermochemistry -
 -------------------
 Temperature     0.001 Kelvin.  Pressure   1.00000 Atm.
 Atom     1 has atomic number  8 and mass  15.99491

 Molecular mass:   157.03233 amu.
 Principal axes and moments of inertia in atomic units:
                           1         2         3
     Eigenvalues --   734.002222202.168132523.29596
           X            0.99984   0.01205   0.01297
           Y           -0.01215   0.99990   0.00784
           Z           -0.01287  -0.00800   0.99989
 This molecule is an asymmetric top.
 Rotational symmetry number  1.
 Warning -- assumption of classical behavior for rotation
           may cause significant error
 Rotational temperatures (Kelvin)      0.11800     0.03933     0.03433
 Rotational constants (GHZ):           2.45877     0.81953     0.71523
 Zero-point vibrational energy     394836.9 (Joules/Mol)
                                   94.36829 (Kcal/Mol)
 Vibrational temperatures:     78.72   151.02   248.69   296.61   356.38
          (Kelvin)            419.99   452.39   510.40   557.12   577.01
                              613.47   696.44   735.79   887.92   988.97
                              996.75  1093.46  1125.15  1241.09  1256.65
                             1392.50  1435.46  1448.63  1464.83  1469.75
                             1502.12  1512.45  1583.56  1613.96  1615.74
                             1720.16  1744.38  1904.40  1926.64  1948.98
                             1970.32  2069.22  2075.31  2147.54  2174.12
                             2361.22  2378.26  4429.46  4590.72  4604.48
                             4619.46  4634.75  4641.77  4657.23  4663.92
                             5390.60

 Zero-point correction=                           0.150385 (Hartree/Particle)
 Thermal correction to Energy=                    0.150385
 Thermal correction to Enthalpy=                  0.150385
 Thermal correction to Gibbs Free Energy=         0.150385
 Sum of electronic and zero-point Energies=           -820.243317
 Sum of electronic and thermal Energies=              -820.243317
 Sum of electronic and thermal Enthalpies=            -820.243317
 Sum of electronic and thermal Free Energies=         -820.243317

                     E (Thermal)             CV                S
                      KCal/Mol        Cal/Mol-Kelvin    Cal/Mol-Kelvin
 Total                   94.368              5.962            -29.344
 Electronic               0.000              0.000              0.000
 Translational            0.000              2.981            -21.560
 Rotational               0.000              2.981             -7.784
 Vibrational             94.368              0.000              0.000

 Optimization completed.
    -- Stationary point found.
 Normal termination of Gaussian 16 at Sun Oct 13 22:10:33 2019.
