 Gaussian 16, Revision A.03,
 Gaussian 16:  ES64L-G16RevA.03 25-Dec-2016

 -------------------------------------------------------------------
 #P opt freq m062x/6-311++g(d,p) geom=connectivity temperature=0.001
 -------------------------------------------------------------------

 -------------------
 Title Card Required
 -------------------
 Symbolic Z-matrix:
 Charge =  0 Multiplicity = 1

 SCF Done:  E(RM062X) =  -704.267218408     A.U. after   16 cycles
 SCF Done:  E(RM062X) =  -704.349468539     A.U. after   14 cycles
 SCF Done:  E(RM062X) =  -704.422481067     A.U. after   15 cycles
 SCF Done:  E(RM062X) =  -704.464668197     A.U. after   14 cycles
 SCF Done:  E(RM062X) =  -704.489027944     A.U. after   13 cycles
 SCF Done:  E(RM062X) =  -704.491927356     A.U. after   14 cycles
 SCF Done:  E(RM062X) =  -704.493602368     A.U. after   13 cycles
 SCF Done:  E(RM062X) =  -704.496034740     A.U. after   14 cycles
 SCF Done:  E(RM062X) =  -704.496974013     A.U. after   13 cycles
 SCF Done:  E(RM062X) =  -704.497297095     A.U. after   12 cycles
 SCF Done:  E(RM062X) =  -704.497347571     A.U. after   10 cycles
 SCF Done:  E(RM062X) =  -704.497371724     A.U. after   11 cycles
 SCF Done:  E(RM062X) =  -704.497376687     A.U. after    9 cycles
 SCF Done:  E(RM062X) =  -704.497377480     A.U. after    9 cycles
 Optimization completed.
    -- Stationary point found.
 Normal termination of Gaussian 16 at Sun Oct 13 22:12:51 2019.

 ----------------------------------------------------------------------
 #P Geom=AllCheck Guess=TCheck SCRF=Check GenChk RM062X/6-311++G(d,p) F
 req
 ----------------------------------------------------------------------

 Structure from the checkpoint file:  "28.chk"
 -------------------
 Title Card Required
 -------------------
 Charge =  0 Multiplicity = 1

                         Standard orientation:
 ---------------------------------------------------------------------
 Center     Atomic      Atomic             Coordinates (Angstroms)
 Number     Number       Type             X           Y           Z
 ---------------------------------------------------------------------
      1          6           0        2.406518    0.809178    0.006473
      2          6           0        1.242043    0.712918    0.626406
      3         16           0        0.000012   -0.397260   -0.000113
      4          8           0        0.565392   -1.108714   -1.136535
      5          6           0       -1.241888    0.713755   -0.625625
      6          6           0       -2.406593    0.809238   -0.006014
      7          8           0       -0.565448   -1.109729    1.135656
      8          1           0        3.188658    1.455049    0.387486
      9          1           0        2.598491    0.228703   -0.889980
     10          1           0        0.954087    1.232517    1.532568
     11          1           0       -0.953638    1.234433   -1.531068
     12          1           0       -3.188770    1.455048   -0.387055
     13          1           0       -2.599050    0.227418    0.889450
 ---------------------------------------------------------------------

 SCF Done:  E(RM062X) =  -704.497377480     A.U. after    1 cycles

 The electronic state is 1-A.
 Alpha  occ. eigenvalues --  -90.10457 -19.62035 -19.62033 -10.59231 -10.59230
 Alpha  occ. eigenvalues --  -10.58261 -10.58261  -8.44842  -6.37050  -6.36974
 Alpha  occ. eigenvalues --   -6.36951  -1.24200  -1.13358  -0.93291  -0.91154
 Alpha  occ. eigenvalues --   -0.79375  -0.71015  -0.65129  -0.61832  -0.58495
 Alpha  occ. eigenvalues --   -0.56286  -0.55523  -0.51860  -0.48704  -0.48416
 Alpha  occ. eigenvalues --   -0.41568  -0.40908  -0.39000  -0.38988  -0.36945
 Alpha  occ. eigenvalues --   -0.35933
 Alpha virt. eigenvalues --   -0.03438  -0.00727   0.00321   0.00564   0.01464
 Alpha virt. eigenvalues --    0.02677   0.03109   0.04897   0.05885   0.07068
 Alpha virt. eigenvalues --    0.07179   0.07594   0.09017   0.10261   0.10485

 Mulliken charges:
               1
     1  C   -0.340775
     2  C   -0.068875
     3  S   -0.014063
     4  O   -0.226605
     5  C   -0.068940
     6  C   -0.340772
     7  O   -0.226628
     8  H    0.160876
     9  H    0.213663
    10  H    0.268795
    11  H    0.268754
    12  H    0.160893
    13  H    0.213676
 Sum of Mulliken charges =  -0.00000

 Dipole moment (field-independent basis, Debye):
    X=              0.0000    Y=              4.9183    Z=              0.0015  Tot=              4.9183
 Quadrupole moment (field-independent basis, Debye-Ang):
   XX=            -38.3106   YY=            -52.4381   ZZ=            -51.8508
   XY=              0.0011   XZ=              2.2126   YZ=             -0.0016

  Exact polarizability:  96.133   0.004  58.401  -8.229  -0.004  60.959
 Approx polarizability: 107.056   0.009  71.153 -18.694  -0.008  82.816

                      1                      2                      3
                      A                      A                      A
 Frequencies --     87.8291               107.4080               237.8085
 Red. masses --      3.4592                 2.4907                 1.9220
 Frc consts  --      0.0157                 0.0169                 0.0640
 IR Inten    --      1.8092                 1.5902                 1.7911

                      4                      5                      6
                      A                      A                      A
 Frequencies --    255.0067               260.5311               385.4620
 Red. masses --      4.0311                 5.7060                 4.0367
 Frc consts  --      0.1544                 0.2282                 0.3534
 IR Inten    --      1.9559                 0.0340                 1.3972

                      7                      8                      9
                      A                      A                      A
 Frequencies --    394.1744               475.1116               558.8985
 Red. masses --      2.9785                 6.7112                 3.1527
 Frc consts  --      0.2727                 0.8926                 0.5802
 IR Inten    --     12.5435                20.6797                16.6513

                     10                     11                     12
                      A                      A                      A
 Frequencies --    602.9013               643.0895               726.0839
 Red. masses --      1.9904                 1.9945                 2.9422
 Frc consts  --      0.4263                 0.4860                 0.9139
 IR Inten    --     22.6937                 4.0165                49.6432

                     13                     14                     15
                      A                      A                      A
 Frequencies --    781.0116               994.2895               994.5508
 Red. masses --      4.4921                 1.0986                 1.1110
 Frc consts  --      1.6144                 0.6399                 0.6475
 IR Inten    --    190.6725                15.4278                12.5210

                     16                     17                     18
                      A                      A                      A
 Frequencies --   1018.4572              1028.5572              1029.6729
 Red. masses --      1.2870                 1.3087                 1.2996
 Frc consts  --      0.7865                 0.8157                 0.8118
 IR Inten    --      4.3143                23.2349                43.1078

                     19                     20                     21
                      A                      A                      A
 Frequencies --   1030.0223              1133.9731              1266.9534
 Red. masses --      1.3258                 9.8460                 1.4699
 Frc consts  --      0.8288                 7.4596                 1.3901
 IR Inten    --     12.1266               180.7231                21.3583

                     22                     23                     24
                      A                      A                      A
 Frequencies --   1279.3438              1339.8142              1417.0683
 Red. masses --      1.3632                 7.5471                 1.1733
 Frc consts  --      1.3145                 7.9821                 1.3882
 IR Inten    --      2.8625               204.7597                30.5736

                     25                     26                     27
                      A                      A                      A
 Frequencies --   1417.1452              1697.0578              1699.7696
 Red. masses --      1.1656                 4.8055                 4.7794
 Frc consts  --      1.3792                 8.1542                 8.1359
 IR Inten    --      2.1287                 0.0486                 4.3076

                     28                     29                     30
                      A                      A                      A
 Frequencies --   3165.9245              3166.0755              3222.3197
 Red. masses --      1.0583                 1.0582                 1.0981
 Frc consts  --      6.2497                 6.2499                 6.7179
 IR Inten    --      3.4409                 2.7497                 1.8900

                     31                     32                     33
                      A                      A                      A
 Frequencies --   3222.6914              3265.4708              3265.5246
 Red. masses --      1.0980                 1.1178                 1.1178
 Frc consts  --      6.7187                 7.0229                 7.0232
 IR Inten    --      0.0205                 2.0508                 1.6306

 - Thermochemistry -
 -------------------
 Temperature     0.001 Kelvin.  Pressure   1.00000 Atm.
 Atom     1 has atomic number  6 and mass  12.00000

 Molecular mass:   118.00885 amu.
 Principal axes and moments of inertia in atomic units:
                           1         2         3
     Eigenvalues --   488.55968 998.141971077.31350
           X            0.99999   0.00001   0.00458
           Y           -0.00001   1.00000  -0.00007
           Z           -0.00458   0.00007   0.99999
 This molecule is an asymmetric top.
 Rotational symmetry number  1.
 Warning -- assumption of classical behavior for rotation
           may cause significant error
 Rotational temperatures (Kelvin)      0.17728     0.08678     0.08040
 Rotational constants (GHZ):           3.69400     1.80810     1.67522
 Zero-point vibrational energy     252232.6 (Joules/Mol)
                                   60.28504 (Kcal/Mol)
 Vibrational temperatures:    126.37   154.54   342.15   366.90   374.85
          (Kelvin)            554.59   567.13   683.58   804.13   867.44
                              925.26  1044.67  1123.70  1430.56  1430.94
                             1465.33  1479.86  1481.47  1481.97  1631.53
                             1822.86  1840.69  1927.69  2038.85  2038.96
                             2441.69  2445.59  4555.06  4555.28  4636.20
                             4636.73  4698.28  4698.36

 Zero-point correction=                           0.096070 (Hartree/Particle)
 Thermal correction to Energy=                    0.096070
 Thermal correction to Enthalpy=                  0.096070
 Thermal correction to Gibbs Free Energy=         0.096070
 Sum of electronic and zero-point Energies=           -704.401307
 Sum of electronic and thermal Energies=              -704.401307
 Sum of electronic and thermal Enthalpies=            -704.401307
 Sum of electronic and thermal Free Energies=         -704.401307

                     E (Thermal)             CV                S
                      KCal/Mol        Cal/Mol-Kelvin    Cal/Mol-Kelvin
 Total                   60.285              5.962            -32.232
 Electronic               0.000              0.000              0.000
 Translational            0.000              2.981            -22.412
 Rotational               0.000              2.981             -9.820
 Vibrational             60.285              0.000              0.000

 Optimization completed.
    -- Stationary point found.
 Normal termination of Gaussian 16 at Sun Oct 13 22:13:35 2019.
