 Gaussian 16, Revision A.03,
 Gaussian 16:  ES64L-G16RevA.03 25-Dec-2016

 -------------------------------------------------------------------
 #P opt freq m062x/6-311++g(d,p) geom=connectivity temperature=0.001
 -------------------------------------------------------------------

 -------------------
 Title Card Required
 -------------------
 Symbolic Z-matrix:
 Charge =  1 Multiplicity = 1

 SCF Done:  E(RM062X) =  -704.598299005     A.U. after   17 cycles
 SCF Done:  E(RM062X) =  -704.674425370     A.U. after   14 cycles
 SCF Done:  E(RM062X) =  -704.732100246     A.U. after   14 cycles
 SCF Done:  E(RM062X) =  -704.775459813     A.U. after   14 cycles
 SCF Done:  E(RM062X) =  -704.804604316     A.U. after   14 cycles
 SCF Done:  E(RM062X) =  -704.808185794     A.U. after   13 cycles
 SCF Done:  E(RM062X) =  -704.810258730     A.U. after   13 cycles
 SCF Done:  E(RM062X) =  -704.813143116     A.U. after   13 cycles
 SCF Done:  E(RM062X) =  -704.814489575     A.U. after   12 cycles
 SCF Done:  E(RM062X) =  -704.815482047     A.U. after   12 cycles
 SCF Done:  E(RM062X) =  -704.817309034     A.U. after   13 cycles
 SCF Done:  E(RM062X) =  -704.817956912     A.U. after   12 cycles
 SCF Done:  E(RM062X) =  -704.818179289     A.U. after   12 cycles
 SCF Done:  E(RM062X) =  -704.818222948     A.U. after   11 cycles
 SCF Done:  E(RM062X) =  -704.818240474     A.U. after   11 cycles
 SCF Done:  E(RM062X) =  -704.818254990     A.U. after   10 cycles
 SCF Done:  E(RM062X) =  -704.818255684     A.U. after    9 cycles
 SCF Done:  E(RM062X) =  -704.818256431     A.U. after    9 cycles
 SCF Done:  E(RM062X) =  -704.818256481     A.U. after    8 cycles
 Optimization completed.
    -- Stationary point found.
 Normal termination of Gaussian 16 at Sun Oct 13 22:15:17 2019.

 ----------------------------------------------------------------------
 #P Geom=AllCheck Guess=TCheck SCRF=Check GenChk RM062X/6-311++G(d,p) F
 req
 ----------------------------------------------------------------------

 Structure from the checkpoint file:  "28_p.chk"
 -------------------
 Title Card Required
 -------------------
 Charge =  1 Multiplicity = 1

                         Standard orientation:
 ---------------------------------------------------------------------
 Center     Atomic      Atomic             Coordinates (Angstroms)
 Number     Number       Type             X           Y           Z
 ---------------------------------------------------------------------
      1          6           0       -2.420996    0.820895    0.041566
      2          6           0       -1.207588    0.871259   -0.488270
      3         16           0       -0.046480   -0.315564    0.076427
      4          8           0       -0.602054   -1.289620    0.973189
      5          6           0        1.352100    0.499088    0.774457
      6          6           0        2.392740    0.849807    0.032842
      7          8           0        0.461463   -0.876769   -1.316241
      8          1           0       -3.173540    1.536145   -0.270359
      9          1           0       -2.693481    0.074874    0.782089
     10          1           0       -0.822793    1.565604   -1.225991
     11          1           0        1.222154    0.663880    1.838838
     12          1           0        3.233740    1.350598    0.499735
     13          1           0        2.447753    0.655070   -1.032838
     14          1           0        0.957040   -1.712344   -1.233454
 ---------------------------------------------------------------------

 SCF Done:  E(RM062X) =  -704.818256481     A.U. after    1 cycles

 The electronic state is 1-A.
 Alpha  occ. eigenvalues --  -90.32678 -19.89777 -19.84139 -10.78113 -10.77737
 Alpha  occ. eigenvalues --  -10.76555 -10.76031  -8.67300  -6.59592  -6.59358
 Alpha  occ. eigenvalues --   -6.59226  -1.47444  -1.38241  -1.14419  -1.09677
 Alpha  occ. eigenvalues --   -1.01466  -0.91521  -0.87648  -0.81860  -0.80736
 Alpha  occ. eigenvalues --   -0.78648  -0.74064  -0.71506  -0.70949  -0.67467
 Alpha  occ. eigenvalues --   -0.65583  -0.65039  -0.61340  -0.58579  -0.57403
 Alpha  occ. eigenvalues --   -0.54678
 Alpha virt. eigenvalues --   -0.21841  -0.17200  -0.14643  -0.13319  -0.11397
 Alpha virt. eigenvalues --   -0.10773  -0.09892  -0.09151  -0.08372  -0.07374
 Alpha virt. eigenvalues --   -0.06851  -0.06545  -0.06323  -0.05619  -0.05017

 Mulliken charges:
               1
     1  C   -0.344878
     2  C    0.064094
     3  S   -0.065057
     4  O   -0.147686
     5  C    0.096853
     6  C   -0.447444
     7  O   -0.157455
     8  H    0.231705
     9  H    0.248823
    10  H    0.327255
    11  H    0.347819
    12  H    0.237814
    13  H    0.222952
    14  H    0.385204
 Sum of Mulliken charges =   1.00000

 Dipole moment (field-independent basis, Debye):
    X=              1.7214    Y=              2.3117    Z=             -1.0064  Tot=              3.0528
 Quadrupole moment (field-independent basis, Debye-Ang):
   XX=            -23.3361   YY=            -40.4018   ZZ=            -44.1424
   XY=             -3.7284   XZ=             -0.2328   YZ=              3.3634

  Exact polarizability:  92.353   1.906  56.429  -6.876  -2.731  56.963
 Approx polarizability: 103.551   5.427  70.305 -14.936  -7.067  76.822

                      1                      2                      3
                      A                      A                      A
 Frequencies --     77.2810               100.5992               197.8121
 Red. masses --      2.7279                 2.6549                 2.0946
 Frc consts  --      0.0096                 0.0158                 0.0483
 IR Inten    --      4.8887                 1.1247                11.1763

                      4                      5                      6
                      A                      A                      A
 Frequencies --    246.5760               255.4661               309.8138
 Red. masses --      3.2589                 5.2966                 1.1534
 Frc consts  --      0.1167                 0.2037                 0.0652
 IR Inten    --      2.4038                 2.2290                86.9142

                      7                      8                      9
                      A                      A                      A
 Frequencies --    364.0332               400.1287               426.4970
 Red. masses --      3.0802                 3.9901                 4.7703
 Frc consts  --      0.2405                 0.3764                 0.5112
 IR Inten    --     19.6202                15.2751                42.3411

                     10                     11                     12
                      A                      A                      A
 Frequencies --    541.1609               597.5359               635.5164
 Red. masses --      3.4254                 1.7831                 2.2641
 Frc consts  --      0.5910                 0.3751                 0.5388
 IR Inten    --     20.0088                24.3066                 5.9473

                     13                     14                     15
                      A                      A                      A
 Frequencies --    693.1899               774.9355               886.3988
 Red. masses --      2.6393                 4.3094                 8.3309
 Frc consts  --      0.7472                 1.5248                 3.8566
 IR Inten    --     40.2908               149.7269               210.2901

                     16                     17                     18
                      A                      A                      A
 Frequencies --    957.3550               978.5010              1017.2920
 Red. masses --      1.0717                 1.0795                 1.2915
 Frc consts  --      0.5787                 0.6090                 0.7874
 IR Inten    --     18.1932                26.1816                 5.2612

                     19                     20                     21
                      A                      A                      A
 Frequencies --   1039.5592              1062.2872              1071.0867
 Red. masses --      1.4338                 1.3164                 1.3163
 Frc consts  --      0.9129                 0.8752                 0.8898
 IR Inten    --      2.6617                35.1541                34.3496

                     22                     23                     24
                      A                      A                      A
 Frequencies --   1109.8849              1264.0580              1269.5728
 Red. masses --      1.2339                 1.3335                 1.3129
 Frc consts  --      0.8956                 1.2554                 1.2468
 IR Inten    --     61.5725                13.7147                15.9997

                     25                     26                     27
                      A                      A                      A
 Frequencies --   1333.7997              1423.9904              1429.1299
 Red. masses --      6.1021                 1.1942                 1.1889
 Frc consts  --      6.3960                 1.4268                 1.4306
 IR Inten    --    131.9731                49.1535                37.0694

                     28                     29                     30
                      A                      A                      A
 Frequencies --   1672.4931              1677.6563              3163.6958
 Red. masses --      4.2106                 4.2291                 1.0604
 Frc consts  --      6.9394                 7.0130                 6.2530
 IR Inten    --      8.7504                15.0950                15.8910

                     31                     32                     33
                      A                      A                      A
 Frequencies --   3171.5455              3216.2524              3229.9338
 Red. masses --      1.0596                 1.0996                 1.1002
 Frc consts  --      6.2796                 6.7017                 6.7628
 IR Inten    --     12.7345                24.4176                17.8682

                     34                     35                     36
                      A                      A                      A
 Frequencies --   3266.1479              3268.9098              3730.5730
 Red. masses --      1.1188                 1.1188                 1.0666
 Frc consts  --      7.0317                 7.0439                 8.7460
 IR Inten    --     22.9646                15.4957               300.8697

 - Thermochemistry -
 -------------------
 Temperature     0.001 Kelvin.  Pressure   1.00000 Atm.
 Atom     1 has atomic number  6 and mass  12.00000

 Molecular mass:   119.01668 amu.
 Principal axes and moments of inertia in atomic units:
                           1         2         3
     Eigenvalues --   510.355821022.931671093.65578
           X            0.99997  -0.00810  -0.00096
           Y            0.00814   0.99862   0.05180
           Z            0.00054  -0.05180   0.99866
 This molecule is an asymmetric top.
 Rotational symmetry number  1.
 Warning -- assumption of classical behavior for rotation
           may cause significant error
 Rotational temperatures (Kelvin)      0.16971     0.08467     0.07920
 Rotational constants (GHZ):           3.53624     1.76428     1.65019
 Zero-point vibrational energy     280289.0 (Joules/Mol)
                                   66.99069 (Kcal/Mol)
 Vibrational temperatures:    111.19   144.74   284.61   354.77   367.56
          (Kelvin)            445.75   523.76   575.70   613.63   778.61
                              859.72   914.37   997.35  1114.96  1275.33
                             1377.42  1407.84  1463.66  1495.69  1528.39
                             1541.05  1596.88  1818.70  1826.63  1919.04
                             2048.80  2056.20  2406.34  2413.77  4551.85
                             4563.15  4627.47  4647.15  4699.26  4703.23
                             5367.46

 Zero-point correction=                           0.106756 (Hartree/Particle)
 Thermal correction to Energy=                    0.106756
 Thermal correction to Enthalpy=                  0.106756
 Thermal correction to Gibbs Free Energy=         0.106757
 Sum of electronic and zero-point Energies=           -704.711500
 Sum of electronic and thermal Energies=              -704.711500
 Sum of electronic and thermal Enthalpies=            -704.711500
 Sum of electronic and thermal Free Energies=         -704.711500

                     E (Thermal)             CV                S
                      KCal/Mol        Cal/Mol-Kelvin    Cal/Mol-Kelvin
 Total                   66.991              5.962            -32.124
 Electronic               0.000              0.000              0.000
 Translational            0.000              2.981            -22.387
 Rotational               0.000              2.981             -9.737
 Vibrational             66.991              0.000              0.000

 Optimization completed.
    -- Stationary point found.
 Normal termination of Gaussian 16 at Sun Oct 13 22:16:09 2019.
