 Gaussian 16, Revision A.03,
 Gaussian 16:  ES64L-G16RevA.03 25-Dec-2016

 -------------------------------------------------------------------
 #P opt freq m062x/6-311++g(d,p) geom=connectivity temperature=0.001
 -------------------------------------------------------------------

 -------------------
 Title Card Required
 -------------------
 Symbolic Z-matrix:
 Charge =  0 Multiplicity = 1

 SCF Done:  E(RM062X) =  -911.173720610     A.U. after   18 cycles
 SCF Done:  E(RM062X) =  -911.223419245     A.U. after   17 cycles
 SCF Done:  E(RM062X) =  -911.242408784     A.U. after   15 cycles
 SCF Done:  E(RM062X) =  -911.254680474     A.U. after   14 cycles
 SCF Done:  E(RM062X) =  -911.259569383     A.U. after   15 cycles
 SCF Done:  E(RM062X) =  -911.265735696     A.U. after   16 cycles
 SCF Done:  E(RM062X) =  -911.268013932     A.U. after   15 cycles
 SCF Done:  E(RM062X) =  -911.269173056     A.U. after   15 cycles
 SCF Done:  E(RM062X) =  -911.269987900     A.U. after   14 cycles
 SCF Done:  E(RM062X) =  -911.270058792     A.U. after   14 cycles
 SCF Done:  E(RM062X) =  -911.270069105     A.U. after   13 cycles
 SCF Done:  E(RM062X) =  -911.270070371     A.U. after   12 cycles
 SCF Done:  E(RM062X) =  -911.270070813     A.U. after   11 cycles
 SCF Done:  E(RM062X) =  -911.270070917     A.U. after   11 cycles
 SCF Done:  E(RM062X) =  -911.270070952     A.U. after   11 cycles
 Optimization completed.
    -- Stationary point found.
 Normal termination of Gaussian 16 at Sun Oct 13 23:11:17 2019.

 ----------------------------------------------------------------------
 #P Geom=AllCheck Guess=TCheck SCRF=Check GenChk RM062X/6-311++G(d,p) F
 req
 ----------------------------------------------------------------------

 Structure from the checkpoint file:  "29.chk"
 -------------------
 Title Card Required
 -------------------
 Charge =  0 Multiplicity = 1

                         Standard orientation:
 ---------------------------------------------------------------------
 Center     Atomic      Atomic             Coordinates (Angstroms)
 Number     Number       Type             X           Y           Z
 ---------------------------------------------------------------------
      1          8           0        1.721074   -0.506227    1.436387
      2         16           0        1.275977    0.361571    0.370277
      3          6           0       -0.479015    0.168794    0.189303
      4          6           0       -1.196483    1.165156   -0.462490
      5          6           0       -2.566104    0.997681   -0.621577
      6          6           0       -3.189122   -0.149899   -0.135678
      7          6           0       -2.452748   -1.134986    0.515410
      8          6           0       -1.080819   -0.980670    0.685312
      9          7           0        1.800572   -0.207918   -1.161485
     10          8           0        1.699286   -1.606147   -1.216783
     11          8           0        1.636510    1.763217    0.332451
     12          1           0       -0.685015    2.050900   -0.820219
     13          1           0       -3.148061    1.763705   -1.118875
     14          1           0       -4.258254   -0.273669   -0.261160
     15          1           0       -2.945740   -2.020460    0.897130
     16          1           0       -0.479915   -1.721702    1.198644
     17          1           0        2.792947    0.025772   -1.229984
     18          1           0        1.035195   -1.757451   -1.897700
 ---------------------------------------------------------------------

 SCF Done:  E(RM062X) =  -911.270070952     A.U. after    1 cycles

 The electronic state is 1-A.
 Alpha  occ. eigenvalues --  -90.12334 -19.69220 -19.63185 -19.63135 -14.84071
 Alpha  occ. eigenvalues --  -10.59768 -10.58084 -10.58043 -10.57675 -10.57409
 Alpha  occ. eigenvalues --  -10.57386  -8.46559  -6.38762  -6.38742  -6.38639
 Alpha  occ. eigenvalues --   -1.27163  -1.22736  -1.14712  -1.00151  -0.96761
 Alpha  occ. eigenvalues --   -0.89325  -0.87877  -0.77883  -0.72461  -0.69676
 Alpha  occ. eigenvalues --   -0.64777  -0.63131  -0.61806  -0.59059  -0.56356
 Alpha  occ. eigenvalues --   -0.56232  -0.54232  -0.53410  -0.52291  -0.47591
 Alpha  occ. eigenvalues --   -0.46074  -0.45737  -0.43777  -0.42527  -0.41534
 Alpha  occ. eigenvalues --   -0.40241  -0.38161  -0.36480  -0.34163  -0.33960
 Alpha virt. eigenvalues --   -0.02905  -0.01429  -0.00931  -0.00113   0.00566
 Alpha virt. eigenvalues --    0.01493   0.02055   0.03486   0.04731   0.05765
 Alpha virt. eigenvalues --    0.06639   0.07050   0.07582   0.08560   0.09006

 Mulliken charges:
               1
     1  O   -0.135474
     2  S    0.182557
     3  C   -0.103346
     4  C    0.130897
     5  C   -0.340632
     6  C   -0.176730
     7  C   -0.350483
     8  C   -0.354797
     9  N   -0.373403
    10  O   -0.095237
    11  O   -0.188288
    12  H    0.275517
    13  H    0.219358
    14  H    0.203144
    15  H    0.223282
    16  H    0.272183
    17  H    0.337916
    18  H    0.273535
 Sum of Mulliken charges =  -0.00000

 Dipole moment (field-independent basis, Debye):
    X=             -4.0906    Y=             -1.4076    Z=             -3.2508  Tot=              5.4113
 Quadrupole moment (field-independent basis, Debye-Ang):
   XX=            -64.1870   YY=            -72.6518   ZZ=            -72.2187
   XY=              0.0710   XZ=             -5.1794   YZ=             -0.8377

  Exact polarizability: 125.538   3.988 100.655   4.262 -10.368  79.528
 Approx polarizability: 144.490   6.317 141.299   8.975 -20.777 105.780

                      1                      2                      3
                      A                      A                      A
 Frequencies --     37.5929                68.5288               138.8955
 Red. masses --      4.5615                 6.1486                 4.1991
 Frc consts  --      0.0038                 0.0170                 0.0477
 IR Inten    --      0.4938                 0.1784                 3.0290

                      4                      5                      6
                      A                      A                      A
 Frequencies --    186.5169               228.5513               287.0628
 Red. masses --      6.8672                 9.1393                 3.1212
 Frc consts  --      0.1408                 0.2813                 0.1515
 IR Inten    --      0.6021                 0.7185                 3.0705

                      7                      8                      9
                      A                      A                      A
 Frequencies --    311.6796               360.5979               387.7456
 Red. masses --      8.7672                 4.6390                 1.5748
 Frc consts  --      0.5018                 0.3554                 0.1395
 IR Inten    --      3.6612                16.4479                46.4904

                     10                     11                     12
                      A                      A                      A
 Frequencies --    411.4502               446.7215               482.0322
 Red. masses --      2.8627                 4.8503                 5.3049
 Frc consts  --      0.2855                 0.5703                 0.7262
 IR Inten    --      0.5811                36.8643                 8.1094

                     13                     14                     15
                      A                      A                      A
 Frequencies --    559.9918               574.4149               624.5233
 Red. masses --      5.4685                 6.9290                 6.4198
 Frc consts  --      1.0104                 1.3470                 1.4753
 IR Inten    --    179.2692                51.9690                 0.3239

                     16                     17                     18
                      A                      A                      A
 Frequencies --    693.7021               713.6293               729.8050
 Red. masses --      5.6079                 2.0486                 3.7688
 Frc consts  --      1.5900                 0.6147                 1.1827
 IR Inten    --     89.4412                40.4016               108.9128

                     19                     20                     21
                      A                      A                      A
 Frequencies --    781.8478               874.9411               961.5556
 Red. masses --      1.7629                 1.2428                 1.3768
 Frc consts  --      0.6349                 0.5606                 0.7500
 IR Inten    --     13.8130                 0.1303                 5.9357

                     22                     23                     24
                      A                      A                      A
 Frequencies --    967.7561              1011.5409              1016.7883
 Red. masses --      1.6612                 1.3736                 6.1312
 Frc consts  --      0.9167                 0.8281                 3.7347
 IR Inten    --     52.5971                 0.0239                 1.7031

                     25                     26                     27
                      A                      A                      A
 Frequencies --   1028.6320              1055.0607              1079.9848
 Red. masses --      1.3114                 2.5395                 8.2905
 Frc consts  --      0.8175                 1.6655                 5.6973
 IR Inten    --      0.0206                 2.7679                33.9974

                     28                     29                     30
                      A                      A                      A
 Frequencies --   1109.3730              1116.0974              1179.7963
 Red. masses --      1.5153                 3.3310                 5.2086
 Frc consts  --      1.0988                 2.4447                 4.2715
 IR Inten    --      7.1561                23.9428               214.1529

                     31                     32                     33
                      A                      A                      A
 Frequencies --   1182.7919              1203.5397              1329.4989
 Red. masses --      1.1834                 1.1938                 3.2499
 Frc consts  --      0.9754                 1.0188                 3.3845
 IR Inten    --      8.9325                 3.1855                 4.4050

                     34                     35                     36
                      A                      A                      A
 Frequencies --   1341.4965              1372.0427              1373.7477
 Red. masses --      1.6599                 1.1837                10.9443
 Frc consts  --      1.7600                 1.3129                12.1690
 IR Inten    --     33.3529                86.4722               170.9292

                     37                     38                     39
                      A                      A                      A
 Frequencies --   1470.7258              1489.9234              1520.4018
 Red. masses --      1.1060                 2.2881                 2.1774
 Frc consts  --      1.4096                 2.9927                 2.9655
 IR Inten    --      2.3654                20.2813                 3.2163

                     40                     41                     42
                      A                      A                      A
 Frequencies --   1659.8206              1662.6353              3207.4738
 Red. masses --      5.7769                 6.3824                 1.0870
 Frc consts  --      9.3771                10.3952                 6.5886
 IR Inten    --      2.5039                 0.4344                 1.0162

                     43                     44                     45
                      A                      A                      A
 Frequencies --   3218.3421              3223.2042              3230.3132
 Red. masses --      1.0893                 1.0928                 1.0960
 Frc consts  --      6.6476                 6.6888                 6.7384
 IR Inten    --      5.8981                 0.4019                 0.0617

                     46                     47                     48
                      A                      A                      A
 Frequencies --   3234.3612              3495.2329              3865.9813
 Red. masses --      1.0991                 1.0751                 1.0684
 Frc consts  --      6.7742                 7.7385                 9.4082
 IR Inten    --      8.8579                45.5841                68.1262

 - Thermochemistry -
 -------------------
 Temperature     0.001 Kelvin.  Pressure   1.00000 Atm.
 Atom     1 has atomic number  8 and mass  15.99491

 Molecular mass:   173.01466 amu.
 Principal axes and moments of inertia in atomic units:
                           1         2         3
     Eigenvalues --  1003.844202481.529312717.65589
           X            0.99998  -0.00208  -0.00663
           Y            0.00166   0.99809  -0.06171
           Z            0.00675   0.06170   0.99807
 This molecule is an asymmetric top.
 Rotational symmetry number  1.
 Warning -- assumption of classical behavior for rotation
           may cause significant error
 Rotational temperatures (Kelvin)      0.08628     0.03490     0.03187
 Rotational constants (GHZ):           1.79783     0.72727     0.66408
 Zero-point vibrational energy     349957.6 (Joules/Mol)
                                   83.64188 (Kcal/Mol)
 Vibrational temperatures:     54.09    98.60   199.84   268.36   328.83
          (Kelvin)            413.02   448.44   518.82   557.88   591.99
                              642.73   693.54   805.70   826.45   898.55
                              998.08  1026.75  1050.03  1124.90  1258.85
                             1383.46  1392.39  1455.38  1462.93  1479.97
                             1518.00  1553.86  1596.14  1605.82  1697.46
                             1701.77  1731.63  1912.85  1930.11  1974.06
                             1976.52  2116.05  2143.67  2187.52  2388.11
                             2392.16  4614.84  4630.48  4637.47  4647.70
                             4653.52  5028.86  5562.28

 Zero-point correction=                           0.133292 (Hartree/Particle)
 Thermal correction to Energy=                    0.133292
 Thermal correction to Enthalpy=                  0.133292
 Thermal correction to Gibbs Free Energy=         0.133292
 Sum of electronic and zero-point Energies=           -911.136779
 Sum of electronic and thermal Energies=              -911.136779
 Sum of electronic and thermal Enthalpies=            -911.136779
 Sum of electronic and thermal Free Energies=         -911.136779

                     E (Thermal)             CV                S
                      KCal/Mol        Cal/Mol-Kelvin    Cal/Mol-Kelvin
 Total                   83.642              5.962            -28.552
 Electronic               0.000              0.000              0.000
 Translational            0.000              2.981            -21.271
 Rotational               0.000              2.981             -7.280
 Vibrational             83.642              0.000              0.000

                           ! Non-Optimized Parameters !
 Normal termination of Gaussian 16 at Sun Oct 13 23:13:35 2019.
