 Gaussian 16, Revision A.03,
 Gaussian 16:  ES64L-G16RevA.03 25-Dec-2016

 -------------------------------------------------------------------
 #P opt freq m062x/6-311++g(d,p) geom=connectivity temperature=0.001
 -------------------------------------------------------------------

 -------------------
 Title Card Required
 -------------------
 Symbolic Z-matrix:
 Charge =  1 Multiplicity = 1

 SCF Done:  E(RM062X) =  -911.492352125     A.U. after   18 cycles
 SCF Done:  E(RM062X) =  -911.537211789     A.U. after   15 cycles
 SCF Done:  E(RM062X) =  -911.550632909     A.U. after   15 cycles
 SCF Done:  E(RM062X) =  -911.568156268     A.U. after   15 cycles
 SCF Done:  E(RM062X) =  -911.575877537     A.U. after   14 cycles
 SCF Done:  E(RM062X) =  -911.581425017     A.U. after   16 cycles
 SCF Done:  E(RM062X) =  -911.582900059     A.U. after   14 cycles
 SCF Done:  E(RM062X) =  -911.583375305     A.U. after   15 cycles
 SCF Done:  E(RM062X) =  -911.583514624     A.U. after   13 cycles
 SCF Done:  E(RM062X) =  -911.583600093     A.U. after   13 cycles
 SCF Done:  E(RM062X) =  -911.587621431     A.U. after   14 cycles
 SCF Done:  E(RM062X) =  -911.587844217     A.U. after   14 cycles
 SCF Done:  E(RM062X) =  -911.588006614     A.U. after   14 cycles
 SCF Done:  E(RM062X) =  -911.588095720     A.U. after   13 cycles
 SCF Done:  E(RM062X) =  -911.588127054     A.U. after   13 cycles
 SCF Done:  E(RM062X) =  -911.588133388     A.U. after   12 cycles
 SCF Done:  E(RM062X) =  -911.588137416     A.U. after   12 cycles
 SCF Done:  E(RM062X) =  -911.588138162     A.U. after   11 cycles
 SCF Done:  E(RM062X) =  -911.588138189     A.U. after   10 cycles
 Optimization completed.
    -- Stationary point found.
 Normal termination of Gaussian 16 at Sun Oct 13 23:23:08 2019.

 ----------------------------------------------------------------------
 #P Geom=AllCheck Guess=TCheck SCRF=Check GenChk RM062X/6-311++G(d,p) F
 req
 ----------------------------------------------------------------------

 Structure from the checkpoint file:  "29_p.chk"
 -------------------
 Title Card Required
 -------------------
 Charge =  1 Multiplicity = 1

                         Standard orientation:
 ---------------------------------------------------------------------
 Center     Atomic      Atomic             Coordinates (Angstroms)
 Number     Number       Type             X           Y           Z
 ---------------------------------------------------------------------
      1          8           0       -1.570996   -0.388182   -1.490948
      2         16           0       -1.191166    0.451115   -0.212832
      3          6           0        0.520295    0.163922   -0.133281
      4          6           0        1.275383    1.204104    0.407856
      5          6           0        2.643658    1.005288    0.521670
      6          6           0        3.210833   -0.198125    0.108749
      7          6           0        2.427220   -1.219287   -0.427484
      8          6           0        1.056938   -1.051876   -0.559154
      9          7           0       -1.873654   -0.289367    1.115205
     10          8           0       -1.767043   -1.670366    1.038965
     11          8           0       -1.624006    1.813615   -0.211827
     12          1           0        0.812188    2.136662    0.708871
     13          1           0        3.265605    1.793615    0.925581
     14          1           0        4.280891   -0.340956    0.199415
     15          1           0        2.884763   -2.144769   -0.752751
     16          1           0        0.430221   -1.824371   -0.985983
     17          1           0       -2.850999   -0.004289    1.227042
     18          1           0       -1.245094   -1.923427    1.813798
     19          1           0       -2.512944   -0.349414   -1.736746
 ---------------------------------------------------------------------

 SCF Done:  E(RM062X) =  -911.588138189     A.U. after    2 cycles

 The electronic state is 1-A.
 Alpha  occ. eigenvalues --  -90.33978 -19.89432 -19.86676 -19.84213 -15.03485
 Alpha  occ. eigenvalues --  -10.76722 -10.73299 -10.73275 -10.71363 -10.71073
 Alpha  occ. eigenvalues --  -10.71011  -8.68330  -6.60600  -6.60446  -6.60287
 Alpha  occ. eigenvalues --   -1.48570  -1.41765  -1.38417  -1.17952  -1.14848
 Alpha  occ. eigenvalues --   -1.06621  -1.02482  -0.98107  -0.88976  -0.86920
 Alpha  occ. eigenvalues --   -0.86381  -0.82944  -0.80692  -0.78518  -0.75785
 Alpha  occ. eigenvalues --   -0.73461  -0.71258  -0.69892  -0.67663  -0.67078
 Alpha  occ. eigenvalues --   -0.66512  -0.63247  -0.62037  -0.61671  -0.59364
 Alpha  occ. eigenvalues --   -0.57954  -0.57103  -0.55507  -0.49280  -0.48127
 Alpha virt. eigenvalues --   -0.18946  -0.15456  -0.14878  -0.12844  -0.11904
 Alpha virt. eigenvalues --   -0.10504  -0.09962  -0.08956  -0.08482  -0.07316
 Alpha virt. eigenvalues --   -0.06829  -0.06369  -0.05737  -0.05688  -0.04881

 Mulliken charges:
               1
     1  O   -0.198217
     2  S    0.205352
     3  C   -0.450825
     4  C    0.182460
     5  C   -0.268677
     6  C   -0.113724
     7  C   -0.255896
     8  C   -0.192915
     9  N   -0.262662
    10  O   -0.054889
    11  O   -0.050078
    12  H    0.293495
    13  H    0.264751
    14  H    0.249570
    15  H    0.262034
    16  H    0.289455
    17  H    0.391042
    18  H    0.309960
    19  H    0.399764
 Sum of Mulliken charges =   1.00000

 Dipole moment (field-independent basis, Debye):
    X=             -1.1435    Y=             -1.9969    Z=              0.9407  Tot=              2.4859
 Quadrupole moment (field-independent basis, Debye-Ang):
   XX=            -32.7797   YY=            -63.2082   ZZ=            -61.9019
   XY=              2.2943   XZ=              2.4346   YZ=              0.8881

  Exact polarizability: 127.537  -3.639  99.549   3.796   8.290  72.212
 Approx polarizability: 148.917  -7.300 141.508   6.660  16.049  95.862

                      1                      2                      3
                      A                      A                      A
 Frequencies --     44.0225                75.9460               124.6887
 Red. masses --      4.6528                 5.6198                 3.3585
 Frc consts  --      0.0053                 0.0191                 0.0308
 IR Inten    --      0.5019                 0.6904                10.6617

                      4                      5                      6
                      A                      A                      A
 Frequencies --    182.9012               220.3476               266.6292
 Red. masses --      4.6289                 8.2776                 1.5626
 Frc consts  --      0.0912                 0.2368                 0.0654
 IR Inten    --      5.6170                 3.9413                77.4738

                      7                      8                      9
                      A                      A                      A
 Frequencies --    301.3338               319.5674               358.8062
 Red. masses --      3.2235                 3.5329                 6.7455
 Frc consts  --      0.1725                 0.2126                 0.5117
 IR Inten    --      3.3738                19.9987                 3.7509

                     10                     11                     12
                      A                      A                      A
 Frequencies --    393.0461               402.3344               432.5627
 Red. masses --      1.7215                 2.9077                 3.2711
 Frc consts  --      0.1567                 0.2773                 0.3606
 IR Inten    --     26.8911                 0.0768                92.6237

                     13                     14                     15
                      A                      A                      A
 Frequencies --    487.6999               525.0845               551.6029
 Red. masses --      5.6750                 3.8496                 4.9610
 Frc consts  --      0.7953                 0.6254                 0.8894
 IR Inten    --      3.3438               186.1732                33.6092

                     16                     17                     18
                      A                      A                      A
 Frequencies --    617.0552               635.3687               689.0617
 Red. masses --      6.4166                 2.8038                 2.5741
 Frc consts  --      1.4395                 0.6669                 0.7201
 IR Inten    --      0.3385               162.8201                26.0899

                     19                     20                     21
                      A                      A                      A
 Frequencies --    720.3043               774.8972               863.5793
 Red. masses --      4.3939                 1.4085                 1.2496
 Frc consts  --      1.3432                 0.4983                 0.5491
 IR Inten    --     53.4803                46.9137                 1.1060

                     22                     23                     24
                      A                      A                      A
 Frequencies --    887.5018               963.0137               970.5856
 Red. masses --      6.3400                 2.1372                 1.3166
 Frc consts  --      2.9422                 1.1678                 0.7308
 IR Inten    --    309.0804                23.3440                 1.9083

                     25                     26                     27
                      A                      A                      A
 Frequencies --   1008.9645              1017.9620              1044.6195
 Red. masses --      5.6762                 1.3702                 1.3368
 Frc consts  --      3.4046                 0.8366                 0.8595
 IR Inten    --      5.9912                 0.0178                 0.1968

                     28                     29                     30
                      A                      A                      A
 Frequencies --   1050.1490              1082.2761              1113.0549
 Red. masses --      2.9197                 1.6639                 8.8403
 Frc consts  --      1.8971                 1.1483                 6.4529
 IR Inten    --      4.3904                34.0756                15.0798

                     31                     32                     33
                      A                      A                      A
 Frequencies --   1119.9320              1125.9026              1197.3701
 Red. masses --      1.8124                 1.5736                 1.1394
 Frc consts  --      1.3393                 1.1753                 0.9625
 IR Inten    --     94.8543                21.5846                 1.2579

                     34                     35                     36
                      A                      A                      A
 Frequencies --   1214.2256              1336.2808              1343.9153
 Red. masses --      1.1515                 5.4061                 2.7963
 Frc consts  --      1.0003                 5.6876                 2.9757
 IR Inten    --      0.8951                86.5260                54.8554

                     37                     38                     39
                      A                      A                      A
 Frequencies --   1355.5788              1404.3893              1453.8508
 Red. masses --      1.8201                 1.2660                 1.1330
 Frc consts  --      1.9706                 1.4711                 1.4109
 IR Inten    --      4.2993               123.2675                 7.2498

                     40                     41                     42
                      A                      A                      A
 Frequencies --   1495.9032              1509.8632              1641.8213
 Red. masses --      2.2827                 2.0080                 5.4321
 Frc consts  --      3.0096                 2.6971                 8.6272
 IR Inten    --     36.8284                 3.1479                16.7298

                     43                     44                     45
                      A                      A                      A
 Frequencies --   1652.8227              3218.2025              3223.3286
 Red. masses --      6.0151                 1.0903                 1.0914
 Frc consts  --      9.6815                 6.6532                 6.6810
 IR Inten    --      0.3954                 4.3541                 3.0683

                     46                     47                     48
                      A                      A                      A
 Frequencies --   3232.2723              3238.3586              3243.4118
 Red. masses --      1.0922                 1.0970                 1.0991
 Frc consts  --      6.7233                 6.7783                 6.8123
 IR Inten    --      2.2545                 7.8332                 2.6291

                     49                     50                     51
                      A                      A                      A
 Frequencies --   3467.1582              3744.9656              3811.8978
 Red. masses --      1.0765                 1.0667                 1.0688
 Frc consts  --      7.6245                 8.8146                 9.1505
 IR Inten    --    120.9986               364.0074               136.6670

 - Thermochemistry -
 -------------------
 Temperature     0.001 Kelvin.  Pressure   1.00000 Atm.
 Atom     1 has atomic number  8 and mass  15.99491

 Molecular mass:   174.02249 amu.
 Principal axes and moments of inertia in atomic units:
                           1         2         3
     Eigenvalues --  1011.681462462.869172798.54705
           X            0.99998   0.00570   0.00121
           Y           -0.00574   0.99926   0.03808
           Z           -0.00099  -0.03808   0.99927
 This molecule is an asymmetric top.
 Rotational symmetry number  1.
 Warning -- assumption of classical behavior for rotation
           may cause significant error
 Rotational temperatures (Kelvin)      0.08561     0.03517     0.03095
 Rotational constants (GHZ):           1.78390     0.73278     0.64489
 Zero-point vibrational energy     377759.3 (Joules/Mol)
                                   90.28663 (Kcal/Mol)
 Vibrational temperatures:     63.34   109.27   179.40   263.15   317.03
          (Kelvin)            383.62   433.55   459.79   516.24   565.51
                              578.87   622.36   701.69   755.48   793.63
                              887.80   914.15   991.41  1036.36  1114.90
                             1242.50  1276.92  1385.56  1396.46  1451.67
                             1464.62  1502.97  1510.93  1557.15  1601.44
                             1611.33  1619.92  1722.75  1747.00  1922.61
                             1933.59  1950.38  2020.60  2091.77  2152.27
                             2172.36  2362.21  2378.04  4630.28  4637.65
                             4650.52  4659.28  4666.55  4988.47  5388.17
                             5484.47

 Zero-point correction=                           0.143881 (Hartree/Particle)
 Thermal correction to Energy=                    0.143881
 Thermal correction to Enthalpy=                  0.143881
 Thermal correction to Gibbs Free Energy=         0.143881
 Sum of electronic and zero-point Energies=           -911.444257
 Sum of electronic and thermal Energies=              -911.444257
 Sum of electronic and thermal Enthalpies=            -911.444257
 Sum of electronic and thermal Free Energies=         -911.444257

                     E (Thermal)             CV                S
                      KCal/Mol        Cal/Mol-Kelvin    Cal/Mol-Kelvin
 Total                   90.287              5.962            -28.505
 Electronic               0.000              0.000              0.000
 Translational            0.000              2.981            -21.254
 Rotational               0.000              2.981             -7.251
 Vibrational             90.287              0.000              0.000

 Optimization completed.
    -- Stationary point found.
 Normal termination of Gaussian 16 at Sun Oct 13 23:25:36 2019.
