 Gaussian 16, Revision A.03,
 Gaussian 16:  ES64L-G16RevA.03 25-Dec-2016

 -------------------------------------------------------------------
 #P opt freq m062x/6-311++g(d,p) geom=connectivity temperature=0.001
 -------------------------------------------------------------------

 -------------------
 Title Card Required
 -------------------
 Symbolic Z-matrix:
 Charge =  0 Multiplicity = 1

 SCF Done:  E(RM062X) =  -323.389769780     A.U. after   14 cycles
 SCF Done:  E(RM062X) =  -323.394663961     A.U. after   13 cycles
 SCF Done:  E(RM062X) =  -323.395074584     A.U. after   12 cycles
 SCF Done:  E(RM062X) =  -323.395115064     A.U. after   12 cycles
 Optimization completed.
    -- Stationary point found.
 Normal termination of Gaussian 16 at Sun Oct 13 23:23:44 2019.

 ----------------------------------------------------------------------
 #P Geom=AllCheck Guess=TCheck SCRF=Check GenChk RM062X/6-311++G(d,p) F
 req
 ----------------------------------------------------------------------

 Structure from the checkpoint file:  "3.chk"
 -------------------
 Title Card Required
 -------------------
 Charge =  0 Multiplicity = 1

                         Standard orientation:
 ---------------------------------------------------------------------
 Center     Atomic      Atomic             Coordinates (Angstroms)
 Number     Number       Type             X           Y           Z
 ---------------------------------------------------------------------
      1          8           0       -0.000024    2.248607   -0.000000
      2          7           0        0.000000    0.979253   -0.000000
      3          6           0        1.172839    0.284869   -0.000000
      4          6           0        1.189826   -1.094413    0.000000
      5          6           0        0.000019   -1.812979    0.000000
      6          6           0       -1.189816   -1.094423    0.000000
      7          6           0       -1.172846    0.284845   -0.000000
      8          1           0        2.048649    0.916714   -0.000000
      9          1           0        2.149337   -1.595072    0.000000
     10          1           0        0.000015   -2.894275    0.000000
     11          1           0       -2.149308   -1.595116    0.000000
     12          1           0       -2.048635    0.916721   -0.000000
 ---------------------------------------------------------------------

 SCF Done:  E(RM062X) =  -323.395115064     A.U. after    1 cycles

 The electronic state is 1-A'.
 Alpha  occ. eigenvalues --  -19.59456 -14.90954 -10.60051 -10.60050 -10.57960
 Alpha  occ. eigenvalues --  -10.57955 -10.57345  -1.24329  -1.02168  -0.90614
 Alpha  occ. eigenvalues --   -0.90053  -0.76788  -0.73551  -0.62829  -0.59893
 Alpha  occ. eigenvalues --   -0.57331  -0.56248  -0.53766  -0.52938  -0.46094
 Alpha  occ. eigenvalues --   -0.45883  -0.42410  -0.34908  -0.33419  -0.27879
 Alpha virt. eigenvalues --   -0.02278  -0.00980  -0.00866   0.00560   0.01528
 Alpha virt. eigenvalues --    0.03427   0.04068   0.05208   0.05906   0.08497
 Alpha virt. eigenvalues --    0.08743   0.09130   0.09477   0.11480   0.11985

 Mulliken charges:
               1
     1  O   -0.183543
     2  N   -0.032490
     3  C   -0.349914
     4  C   -0.048794
     5  C   -0.077163
     6  C   -0.048775
     7  C   -0.349943
     8  H    0.221503
     9  H    0.217517
    10  H    0.212576
    11  H    0.217518
    12  H    0.221509
 Sum of Mulliken charges =  -0.00000

 Dipole moment (field-independent basis, Debye):
    X=              0.0001    Y=             -4.5979    Z=              0.0000  Tot=              4.5979
 Quadrupole moment (field-independent basis, Debye-Ang):
   XX=            -32.7927   YY=            -47.5262   ZZ=            -43.7088
   XY=              0.0002   XZ=              0.0000   YZ=              0.0000

  Exact polarizability:  72.497  -0.000  96.739  -0.000  -0.000  37.707
 Approx polarizability:  94.115  -0.001 135.797   0.000  -0.000  48.070

                      1                      2                      3
                     A"                     A"                     A'
 Frequencies --    215.1058               417.0369               492.9979
 Red. masses --      5.2106                 3.1287                 6.4222
 Frc consts  --      0.1421                 0.3206                 0.9197
 IR Inten    --      4.2663                 0.0000                 6.6763

                      4                      5                      6
                     A"                     A'                     A'
 Frequencies --    514.5048               555.8272               652.8897
 Red. masses --      3.1813                 7.9563                 6.4149
 Frc consts  --      0.4962                 1.4482                 1.6111
 IR Inten    --      6.8698                 6.6916                 0.3637

                      7                      8                      9
                     A"                     A"                     A"
 Frequencies --    673.8328               773.1775               839.4220
 Red. masses --      2.5809                 1.6128                 1.2531
 Frc consts  --      0.6904                 0.5681                 0.5202
 IR Inten    --     28.3352                73.6123                 0.0000

                     10                     11                     12
                     A'                     A"                     A"
 Frequencies --    874.9819               896.4064               966.3961
 Red. masses --      5.6942                 1.3404                 1.3165
 Frc consts  --      2.5685                 0.6346                 0.7244
 IR Inten    --     26.4651                 3.4457                 0.0000

                     13                     14                     15
                     A"                     A'                     A'
 Frequencies --    978.2516              1034.0536              1075.6984
 Red. masses --      1.2169                 6.0646                 1.8886
 Frc consts  --      0.6861                 3.8207                 1.2876
 IR Inten    --      0.7002                38.7884                 0.4331

                     16                     17                     18
                     A'                     A'                     A'
 Frequencies --   1104.2515              1167.9151              1199.5238
 Red. masses --      1.5472                 1.1379                 1.1378
 Frc consts  --      1.1115                 0.9145                 0.9646
 IR Inten    --      3.6701                 0.7594                37.2834

                     19                     20                     21
                     A'                     A'                     A'
 Frequencies --   1253.8965              1351.4788              1356.2606
 Red. masses --      4.7888                 5.9687                 1.2611
 Frc consts  --      4.4361                 6.4231                 1.3667
 IR Inten    --      3.0757               253.8078                 0.1696

                     22                     23                     24
                     A'                     A'                     A'
 Frequencies --   1511.2905              1522.6841              1624.5656
 Red. masses --      2.3436                 2.6858                 6.4981
 Frc consts  --      3.1537                 3.6690                10.1044
 IR Inten    --    164.2860                 6.2152                 2.2678

                     25                     26                     27
                     A'                     A'                     A'
 Frequencies --   1693.7103              3225.7699              3232.6692
 Red. masses --      5.7460                 1.0874                 1.0919
 Frc consts  --      9.7117                 6.6669                 6.7231
 IR Inten    --     53.1182                 0.0365                 2.2730

                     28                     29                     30
                     A'                     A'                     A'
 Frequencies --   3246.6298              3266.5460              3267.9078
 Red. masses --      1.0974                 1.0949                 1.0968
 Frc consts  --      6.8150                 6.8833                 6.9008
 IR Inten    --      0.3638                 3.1094                 0.7401

 - Thermochemistry -
 -------------------
 Temperature     0.001 Kelvin.  Pressure   1.00000 Atm.
 Atom     1 has atomic number  8 and mass  15.99491

 Molecular mass:    95.03711 amu.
 Principal axes and moments of inertia in atomic units:
                           1         2         3
     Eigenvalues --   302.68577 641.06533 943.75110
           X           -0.00001   1.00000   0.00000
           Y            1.00000   0.00001   0.00000
           Z            0.00000   0.00000   1.00000
 This molecule is an asymmetric top.
 Rotational symmetry number  1.
 Rotational temperatures (Kelvin)      0.28615     0.13511     0.09178
 Rotational constants (GHZ):           5.96243     2.81522     1.91231
 Zero-point vibrational energy     245148.8 (Joules/Mol)
                                   58.59197 (Kcal/Mol)
 Vibrational temperatures:    309.49   600.02   709.31   740.26   799.71
          (Kelvin)            939.36   969.50  1112.43  1207.74  1258.90
                             1289.73  1390.43  1407.49  1487.77  1547.69
                             1588.77  1680.37  1725.85  1804.08  1944.48
                             1951.36  2174.41  2190.80  2337.39  2436.87
                             4641.16  4651.09  4671.18  4699.83  4701.79

 Zero-point correction=                           0.093372 (Hartree/Particle)
 Thermal correction to Energy=                    0.093372
 Thermal correction to Enthalpy=                  0.093372
 Thermal correction to Gibbs Free Energy=         0.093372
 Sum of electronic and zero-point Energies=           -323.301743
 Sum of electronic and thermal Energies=              -323.301743
 Sum of electronic and thermal Enthalpies=            -323.301743
 Sum of electronic and thermal Free Energies=         -323.301743

                     E (Thermal)             CV                S
                      KCal/Mol        Cal/Mol-Kelvin    Cal/Mol-Kelvin
 Total                   58.592              5.962            -33.925
 Electronic               0.000              0.000              0.000
 Translational            0.000              2.981            -23.057
 Rotational               0.000              2.981            -10.867
 Vibrational             58.592              0.000              0.000

 Optimization completed.
    -- Stationary point found.
 Normal termination of Gaussian 16 at Sun Oct 13 23:24:13 2019.
