 Gaussian 16, Revision A.03,
 Gaussian 16:  ES64L-G16RevA.03 25-Dec-2016

 -------------------------------------------------------------------
 #P opt freq m062x/6-311++g(d,p) geom=connectivity temperature=0.001
 -------------------------------------------------------------------

 -------------------
 Title Card Required
 -------------------
 Symbolic Z-matrix:
 Charge =  0 Multiplicity = 1

 SCF Done:  E(RM062X) =  -864.106928285     A.U. after   15 cycles
 SCF Done:  E(RM062X) =  -864.150797309     A.U. after   13 cycles
 SCF Done:  E(RM062X) =  -864.175814827     A.U. after   12 cycles
 SCF Done:  E(RM062X) =  -864.182934614     A.U. after   12 cycles
 SCF Done:  E(RM062X) =  -864.184758231     A.U. after   11 cycles
 SCF Done:  E(RM062X) =  -864.185595700     A.U. after   11 cycles
 SCF Done:  E(RM062X) =  -864.185652444     A.U. after   11 cycles
 SCF Done:  E(RM062X) =  -864.185657675     A.U. after   11 cycles
 SCF Done:  E(RM062X) =  -864.185658345     A.U. after    9 cycles
 SCF Done:  E(RM062X) =  -864.185658543     A.U. after    9 cycles
 SCF Done:  E(RM062X) =  -864.185658644     A.U. after    9 cycles
 Optimization completed.
    -- Stationary point found.
 Normal termination of Gaussian 16 at Sun Oct 13 23:16:26 2019.

 ----------------------------------------------------------------------
 #P Geom=AllCheck Guess=TCheck SCRF=Check GenChk RM062X/6-311++G(d,p) F
 req
 ----------------------------------------------------------------------

 Structure from the checkpoint file:  "30.chk"
 -------------------
 Title Card Required
 -------------------
 Charge =  0 Multiplicity = 1

                         Standard orientation:
 ---------------------------------------------------------------------
 Center     Atomic      Atomic             Coordinates (Angstroms)
 Number     Number       Type             X           Y           Z
 ---------------------------------------------------------------------
      1          8           0        0.055874    1.123229    1.545663
      2         16           0       -0.038263    1.078058    0.089208
      3          6           0        1.605683    0.763457   -0.566583
      4          6           0        2.303903   -0.427798    0.074422
      5          6           0        3.766054   -0.523872   -0.363162
      6          6           0        4.467508   -1.731032    0.253151
      7          6           0       -1.002584   -0.375238   -0.353537
      8          6           0       -2.457262   -0.164426    0.054543
      9          6           0       -3.314438   -1.385345   -0.277226
     10          6           0       -4.773112   -1.180396    0.123004
     11          8           0       -0.588519    2.217167   -0.637989
     12          1           0        1.492477    0.668639   -1.648915
     13          1           0        2.130827    1.700157   -0.358116
     14          1           0        2.245783   -0.328890    1.162339
     15          1           0        1.788481   -1.355536   -0.195726
     16          1           0        3.817328   -0.582028   -1.455412
     17          1           0        4.286091    0.395018   -0.074609
     18          1           0        3.979904   -2.661540   -0.048197
     19          1           0        5.512296   -1.784420   -0.057029
     20          1           0        4.442442   -1.679075    1.344232
     21          1           0       -0.898010   -0.505436   -1.433646
     22          1           0       -0.555470   -1.221284    0.172240
     23          1           0       -2.497833    0.040461    1.128525
     24          1           0       -2.846243    0.719488   -0.458281
     25          1           0       -3.251053   -1.592670   -1.350701
     26          1           0       -2.909886   -2.263998    0.236045
     27          1           0       -5.377965   -2.056373   -0.117369
     28          1           0       -4.858737   -0.995632    1.196430
     29          1           0       -5.201589   -0.321074   -0.398204
 ---------------------------------------------------------------------

 SCF Done:  E(RM062X) =  -864.185658644     A.U. after    1 cycles

 The electronic state is 1-A.
 Alpha  occ. eigenvalues --  -90.08854 -19.60819 -19.60762 -10.58294 -10.58183
 Alpha  occ. eigenvalues --  -10.55914 -10.55101 -10.55086 -10.54577 -10.53652
 Alpha  occ. eigenvalues --  -10.53077  -8.43324  -6.35519  -6.35427  -6.35420
 Alpha  occ. eigenvalues --   -1.22779  -1.11810  -0.93704  -0.92379  -0.87409
 Alpha  occ. eigenvalues --   -0.84963  -0.77938  -0.74786  -0.68916  -0.68247
 Alpha  occ. eigenvalues --   -0.66539  -0.59056  -0.57578  -0.57016  -0.55776
 Alpha  occ. eigenvalues --   -0.53843  -0.51504  -0.51340  -0.50386  -0.49965
 Alpha  occ. eigenvalues --   -0.47050  -0.46760  -0.44453  -0.43826  -0.43444
 Alpha  occ. eigenvalues --   -0.41815  -0.41743  -0.41248  -0.40653  -0.40273
 Alpha  occ. eigenvalues --   -0.38994  -0.38621  -0.36839  -0.34379
 Alpha virt. eigenvalues --   -0.01274  -0.00067   0.00352   0.00705   0.01640
 Alpha virt. eigenvalues --    0.01967   0.02150   0.03164   0.03667   0.03935
 Alpha virt. eigenvalues --    0.04327   0.04890   0.05494   0.05549   0.06214

 Mulliken charges:
               1
     1  O   -0.156968
     2  S    0.244125
     3  C   -0.705413
     4  C   -0.034150
     5  C   -0.294516
     6  C   -0.609964
     7  C   -0.484926
     8  C   -0.237369
     9  C   -0.182722
    10  C   -0.633066
    11  O   -0.125412
    12  H    0.269965
    13  H    0.258180
    14  H    0.198598
    15  H    0.091256
    16  H    0.154200
    17  H    0.158361
    18  H    0.150182
    19  H    0.178673
    20  H    0.159053
    21  H    0.239238
    22  H    0.213483
    23  H    0.177130
    24  H    0.179664
    25  H    0.150898
    26  H    0.155513
    27  H    0.174641
    28  H    0.155202
    29  H    0.156144
 Sum of Mulliken charges =  -0.00000

 Dipole moment (field-independent basis, Debye):
    X=              1.5100    Y=             -4.3770    Z=             -2.2072  Tot=              5.1293
 Quadrupole moment (field-independent basis, Debye-Ang):
   XX=            -68.1283   YY=            -86.9038   ZZ=            -82.5771
   XY=              4.3961   XZ=             -1.2738   YZ=             -0.4900

  Exact polarizability: 147.955  -0.560 113.889  -0.602  -1.288 104.003
 Approx polarizability: 140.538  -1.495 139.783   1.112  -2.317 141.729

                      1                      2                      3
                      A                      A                      A
 Frequencies --     33.6494                41.9719                64.1968
 Red. masses --      2.1509                 3.1092                 1.7212
 Frc consts  --      0.0014                 0.0032                 0.0042
 IR Inten    --      0.5196                 0.4313                 0.1328

                      4                      5                      6
                      A                      A                      A
 Frequencies --     72.9413                92.9059               124.6429
 Red. masses --      2.2331                 3.6466                 3.4534
 Frc consts  --      0.0070                 0.0185                 0.0316
 IR Inten    --      1.4746                 2.4806                 3.7905

                      7                      8                      9
                      A                      A                      A
 Frequencies --    125.1121               143.8529               221.5954
 Red. masses --      2.2906                 2.4758                 2.8226
 Frc consts  --      0.0211                 0.0302                 0.0817
 IR Inten    --      0.6996                 2.4328                 0.3143

                     10                     11                     12
                      A                      A                      A
 Frequencies --    245.3625               247.0960               265.1201
 Red. masses --      1.1295                 1.1780                 3.9548
 Frc consts  --      0.0401                 0.0424                 0.1638
 IR Inten    --      0.0279                 0.1597                 3.5959

                     13                     14                     15
                      A                      A                      A
 Frequencies --    279.1183               297.1652               341.2457
 Red. masses --      3.8356                 4.1284                 3.2177
 Frc consts  --      0.1761                 0.2148                 0.2208
 IR Inten    --      0.2717                 4.6181                 1.0827

                     16                     17                     18
                      A                      A                      A
 Frequencies --    408.3489               446.7793               505.1617
 Red. masses --      3.0351                 3.3477                 6.8002
 Frc consts  --      0.2982                 0.3937                 1.0224
 IR Inten    --     10.7052                 6.3647                31.5861

                     19                     20                     21
                      A                      A                      A
 Frequencies --    544.5490               725.9738               740.6526
 Red. masses --      5.4973                 1.6459                 1.2985
 Frc consts  --      0.9604                 0.5111                 0.4197
 IR Inten    --     53.2714                 0.8450                 8.0611

                     22                     23                     24
                      A                      A                      A
 Frequencies --    743.8099               779.6086               799.5968
 Red. masses --      1.3164                 1.5817                 1.1980
 Frc consts  --      0.4291                 0.5664                 0.4513
 IR Inten    --      3.9899                 8.7934                 0.2381

                     25                     26                     27
                      A                      A                      A
 Frequencies --    821.7439               915.1978               916.9678
 Red. masses --      2.6087                 1.6181                 1.7548
 Frc consts  --      1.0379                 0.7985                 0.8693
 IR Inten    --     64.1379                 0.2405                 4.3707

                     28                     29                     30
                      A                      A                      A
 Frequencies --    930.5642               936.0489              1039.8522
 Red. masses --      1.3213                 1.3030                 3.3108
 Frc consts  --      0.6741                 0.6727                 2.1092
 IR Inten    --      8.8552                10.3899                 3.3877

                     31                     32                     33
                      A                      A                      A
 Frequencies --   1045.6413              1080.2715              1085.0952
 Red. masses --      3.0630                 1.8263                 1.9988
 Frc consts  --      1.9732                 1.2557                 1.3866
 IR Inten    --      0.1458                 8.9178                 1.6769

                     34                     35                     36
                      A                      A                      A
 Frequencies --   1088.3429              1099.9992              1121.5186
 Red. masses --      1.5034                 1.4709                 2.9921
 Frc consts  --      1.0492                 1.0486                 2.2174
 IR Inten    --      5.9108                16.6869                66.7705

                     37                     38                     39
                      A                      A                      A
 Frequencies --   1132.1582              1146.5871              1226.5072
 Red. masses --      2.3551                 3.2240                 1.5044
 Frc consts  --      1.7786                 2.4972                 1.3334
 IR Inten    --      4.7070                93.3785                 1.0651

                     40                     41                     42
                      A                      A                      A
 Frequencies --   1231.5354              1255.2528              1262.3668
 Red. masses --      1.4815                 1.3457                 1.4106
 Frc consts  --      1.3239                 1.2493                 1.3244
 IR Inten    --      3.6812                 5.8841                13.3859

                     43                     44                     45
                      A                      A                      A
 Frequencies --   1299.9758              1310.6913              1323.0891
 Red. masses --      1.9244                 1.1913                 1.5252
 Frc consts  --      1.9161                 1.2058                 1.5731
 IR Inten    --     93.2902                 1.6703                70.9064

                     46                     47                     48
                      A                      A                      A
 Frequencies --   1338.1854              1340.9552              1345.9412
 Red. masses --      1.1413                 1.2198                 1.3042
 Frc consts  --      1.2042                 1.2923                 1.3920
 IR Inten    --      1.0537                 9.2339                 3.9780

                     49                     50                     51
                      A                      A                      A
 Frequencies --   1354.5545              1403.0823              1404.9538
 Red. masses --      1.5815                 1.5713                 1.5496
 Frc consts  --      1.7097                 1.8225                 1.8022
 IR Inten    --     50.1867                 0.9081                 1.8771

                     52                     53                     54
                      A                      A                      A
 Frequencies --   1417.8781              1418.4128              1453.9742
 Red. masses --      1.2826                 1.2854                 1.0964
 Frc consts  --      1.5193                 1.5237                 1.3656
 IR Inten    --      4.3322                 4.6397                 6.6183

                     55                     56                     57
                      A                      A                      A
 Frequencies --   1455.4637              1493.9406              1494.3215
 Red. masses --      1.1026                 1.0619                 1.0635
 Frc consts  --      1.3762                 1.3964                 1.3992
 IR Inten    --      5.0869                 1.0142                 2.7170

                     58                     59                     60
                      A                      A                      A
 Frequencies --   1501.6448              1502.9324              1505.4179
 Red. masses --      1.0692                 1.0716                 1.0387
 Frc consts  --      1.4205                 1.4262                 1.3869
 IR Inten    --      0.4701                 0.4015                10.3421

                     61                     62                     63
                      A                      A                      A
 Frequencies --   1505.4369              1514.5421              1514.9017
 Red. masses --      1.0387                 1.0880                 1.0871
 Frc consts  --      1.3870                 1.4704                 1.4699
 IR Inten    --      9.4738                11.9035                11.3031

                     64                     65                     66
                      A                      A                      A
 Frequencies --   3048.8265              3049.9990              3058.2925
 Red. masses --      1.0597                 1.0599                 1.0549
 Frc consts  --      5.8034                 5.8092                 5.8133
 IR Inten    --     16.3998                 5.8231                13.4477

                     67                     68                     69
                      A                      A                      A
 Frequencies --   3061.5786              3062.2499              3069.4549
 Red. masses --      1.0432                 1.0359                 1.0593
 Frc consts  --      5.7611                 5.7234                 5.8804
 IR Inten    --     36.4760                21.8974                 9.2679

                     70                     71                     72
                      A                      A                      A
 Frequencies --   3081.9104              3081.9707              3083.8965
 Red. masses --      1.0964                 1.0683                 1.0658
 Frc consts  --      6.1355                 5.9786                 5.9719
 IR Inten    --      4.3131                 8.2753                13.9210

                     73                     74                     75
                      A                      A                      A
 Frequencies --   3085.0577              3109.3760              3117.2315
 Red. masses --      1.0883                 1.1039                 1.1054
 Frc consts  --      6.1029                 6.2882                 6.3286
 IR Inten    --      2.8906                 5.3722                 1.8950

                     76                     77                     78
                      A                      A                      A
 Frequencies --   3131.5234              3134.3208              3140.3141
 Red. masses --      1.1032                 1.1033                 1.1022
 Frc consts  --      6.3742                 6.3862                 6.4043
 IR Inten    --     32.8171                31.1528                24.7011

                     79                     80                     81
                      A                      A                      A
 Frequencies --   3141.0079              3143.2194              3151.7702
 Red. masses --      1.1020                 1.1057                 1.1080
 Frc consts  --      6.4059                 6.4363                 6.4849
 IR Inten    --     23.8033                 5.6560                 5.3131

 - Thermochemistry -
 -------------------
 Temperature     0.001 Kelvin.  Pressure   1.00000 Atm.
 Atom     1 has atomic number  8 and mass  15.99491

 Molecular mass:   178.10275 amu.
 Principal axes and moments of inertia in atomic units:
                           1         2         3
     Eigenvalues --  1173.829974637.603615317.31837
           X            1.00000   0.00127  -0.00097
           Y           -0.00128   0.99995  -0.00954
           Z            0.00095   0.00954   0.99995
 This molecule is an asymmetric top.
 Rotational symmetry number  1.
 Warning -- assumption of classical behavior for rotation
           may cause significant error
 Rotational temperatures (Kelvin)      0.07379     0.01868     0.01629
 Rotational constants (GHZ):           1.53748     0.38915     0.33941
 Zero-point vibrational energy     677555.3 (Joules/Mol)
                                  161.93961 (Kcal/Mol)
 Vibrational temperatures:     48.41    60.39    92.36   104.95   133.67
          (Kelvin)            179.33   180.01   206.97   318.83   353.02
                              355.52   381.45   401.59   427.55   490.98
                              587.52   642.82   726.82   783.48  1044.51
                             1065.63  1070.18  1121.68  1150.44  1182.31
                             1316.77  1319.31  1338.87  1346.77  1496.12
                             1504.44  1554.27  1561.21  1565.88  1582.65
                             1613.62  1628.92  1649.68  1764.67  1771.90
                             1806.03  1816.26  1870.38  1885.79  1903.63
                             1925.35  1929.34  1936.51  1948.90  2018.72
                             2021.42  2040.01  2040.78  2091.94  2094.09
                             2149.45  2150.00  2160.53  2162.38  2165.96
                             2165.99  2179.09  2179.61  4386.58  4388.27
                             4400.20  4404.93  4405.89  4416.26  4434.18
                             4434.27  4437.04  4438.71  4473.70  4485.00
                             4505.56  4509.59  4518.21  4519.21  4522.39
                             4534.69

 Zero-point correction=                           0.258067 (Hartree/Particle)
 Thermal correction to Energy=                    0.258067
 Thermal correction to Enthalpy=                  0.258067
 Thermal correction to Gibbs Free Energy=         0.258067
 Sum of electronic and zero-point Energies=           -863.927591
 Sum of electronic and thermal Energies=              -863.927591
 Sum of electronic and thermal Enthalpies=            -863.927591
 Sum of electronic and thermal Free Energies=         -863.927591

                     E (Thermal)             CV                S
                      KCal/Mol        Cal/Mol-Kelvin    Cal/Mol-Kelvin
 Total                  161.940              5.962            -27.022
 Electronic               0.000              0.000              0.000
 Translational            0.000              2.981            -21.185
 Rotational               0.000              2.981             -5.837
 Vibrational            161.940              0.000              0.000

 Optimization completed.
    -- Stationary point found.
 Normal termination of Gaussian 16 at Sun Oct 13 23:21:23 2019.
