 Gaussian 16, Revision A.03,
 Gaussian 16:  ES64L-G16RevA.03 25-Dec-2016

 -------------------------------------------------------------------
 #P opt freq m062x/6-311++g(d,p) geom=connectivity temperature=0.001
 -------------------------------------------------------------------

 -------------------
 Title Card Required
 -------------------
 Symbolic Z-matrix:
 Charge =  1 Multiplicity = 1

 SCF Done:  E(RM062X) =  -864.443830636     A.U. after   16 cycles
 SCF Done:  E(RM062X) =  -864.482946707     A.U. after   13 cycles
 SCF Done:  E(RM062X) =  -864.502353252     A.U. after   12 cycles
 SCF Done:  E(RM062X) =  -864.509634581     A.U. after   12 cycles
 SCF Done:  E(RM062X) =  -864.511348802     A.U. after   11 cycles
 SCF Done:  E(RM062X) =  -864.512246190     A.U. after   12 cycles
 SCF Done:  E(RM062X) =  -864.512302706     A.U. after   11 cycles
 SCF Done:  E(RM062X) =  -864.512307024     A.U. after   10 cycles
 SCF Done:  E(RM062X) =  -864.512307798     A.U. after    9 cycles
 SCF Done:  E(RM062X) =  -864.512307986     A.U. after    9 cycles
 SCF Done:  E(RM062X) =  -864.512308089     A.U. after    9 cycles
 SCF Done:  E(RM062X) =  -864.512308140     A.U. after    8 cycles
 SCF Done:  E(RM062X) =  -864.512308157     A.U. after    8 cycles
 Optimization completed.
    -- Stationary point found.
 Normal termination of Gaussian 16 at Sun Oct 13 23:17:59 2019.

 ----------------------------------------------------------------------
 #P Geom=AllCheck Guess=TCheck SCRF=Check GenChk RM062X/6-311++G(d,p) F
 req
 ----------------------------------------------------------------------

 Structure from the checkpoint file:  "30_p.chk"
 -------------------
 Title Card Required
 -------------------
 Charge =  1 Multiplicity = 1

                         Standard orientation:
 ---------------------------------------------------------------------
 Center     Atomic      Atomic             Coordinates (Angstroms)
 Number     Number       Type             X           Y           Z
 ---------------------------------------------------------------------
      1          8           0        0.014122    1.223957    1.532949
      2         16           0       -0.042080    1.044234   -0.048551
      3          6           0        1.648677    0.773001   -0.558853
      4          6           0        2.329378   -0.422539    0.101470
      5          6           0        3.774839   -0.548739   -0.398217
      6          6           0        4.486824   -1.731799    0.250431
      7          6           0       -1.019275   -0.428186   -0.318980
      8          6           0       -2.485429   -0.160898    0.026738
      9          6           0       -3.321486   -1.418386   -0.232138
     10          6           0       -4.792215   -1.179269    0.098329
     11          8           0       -0.623325    2.218760   -0.629051
     12          1           0        1.580871    0.676074   -1.647044
     13          1           0        2.134289    1.725888   -0.324231
     14          1           0        2.350407   -0.297864    1.190060
     15          1           0        1.791507   -1.347606   -0.127174
     16          1           0        3.767628   -0.664836   -1.485858
     17          1           0        4.311276    0.378907   -0.179408
     18          1           0        3.978764   -2.671407    0.022761
     19          1           0        5.510415   -1.809683   -0.115361
     20          1           0        4.528878   -1.619503    1.336019
     21          1           0       -0.876536   -0.661321   -1.379416
     22          1           0       -0.576456   -1.223027    0.288487
     23          1           0       -2.570007    0.135343    1.076215
     24          1           0       -2.853996    0.668786   -0.581084
     25          1           0       -3.219017   -1.711294   -1.281539
     26          1           0       -2.934021   -2.246209    0.369996
     27          1           0       -5.379624   -2.077514   -0.091613
     28          1           0       -4.919974   -0.910125    1.148843
     29          1           0       -5.204309   -0.372992   -0.511658
     30          1           0        0.398940    0.479800    2.024950
 ---------------------------------------------------------------------

 SCF Done:  E(RM062X) =  -864.512308157     A.U. after    1 cycles

 The electronic state is 1-A.
 Alpha  occ. eigenvalues --  -90.30448 -19.88069 -19.82239 -10.77036 -10.76902
 Alpha  occ. eigenvalues --  -10.72265 -10.70163 -10.68221 -10.66989 -10.64855
 Alpha  occ. eigenvalues --  -10.63594  -8.65168  -6.57433  -6.57198  -6.57084
 Alpha  occ. eigenvalues --   -1.45504  -1.36297  -1.12747  -1.08414  -1.03090
 Alpha  occ. eigenvalues --   -0.99354  -0.94936  -0.90296  -0.89429  -0.82584
 Alpha  occ. eigenvalues --   -0.81618  -0.81091  -0.77212  -0.75676  -0.73478
 Alpha  occ. eigenvalues --   -0.72148  -0.68115  -0.66838  -0.65591  -0.64940
 Alpha  occ. eigenvalues --   -0.64538  -0.63237  -0.61671  -0.60773  -0.59722
 Alpha  occ. eigenvalues --   -0.59246  -0.58018  -0.57484  -0.55025  -0.54093
 Alpha  occ. eigenvalues --   -0.53479  -0.53309  -0.52417  -0.52136
 Alpha virt. eigenvalues --   -0.15541  -0.12837  -0.12322  -0.11339  -0.10819
 Alpha virt. eigenvalues --   -0.09936  -0.09146  -0.08450  -0.08387  -0.07862
 Alpha virt. eigenvalues --   -0.07287  -0.06562  -0.06171  -0.05694  -0.05300

 Mulliken charges:
               1
     1  O   -0.010183
     2  S   -0.052149
     3  C   -0.704987
     4  C    0.107429
     5  C   -0.335290
     6  C   -0.583965
     7  C   -0.337720
     8  C   -0.255850
     9  C   -0.207647
    10  C   -0.592062
    11  O   -0.015013
    12  H    0.333717
    13  H    0.322372
    14  H    0.134120
    15  H    0.144870
    16  H    0.170307
    17  H    0.183119
    18  H    0.163185
    19  H    0.210032
    20  H    0.161318
    21  H    0.297612
    22  H    0.265583
    23  H    0.188128
    24  H    0.206435
    25  H    0.171032
    26  H    0.164643
    27  H    0.203379
    28  H    0.160449
    29  H    0.168291
    30  H    0.338843
 Sum of Mulliken charges =   1.00000

 Dipole moment (field-independent basis, Debye):
    X=              2.5231    Y=             -2.6303    Z=              0.4255  Tot=              3.6696
 Quadrupole moment (field-independent basis, Debye-Ang):
   XX=            -44.7944   YY=            -77.1141   ZZ=            -68.7871
   XY=              4.8013   XZ=             -0.0507   YZ=              0.1211

  Exact polarizability: 149.309  -1.110 110.714  -0.323  -2.033  99.667
 Approx polarizability: 143.417  -2.950 139.362   1.066  -3.368 133.955

                      1                      2                      3
                      A                      A                      A
 Frequencies --     28.7722                47.0671                56.2488
 Red. masses --      2.1369                 2.2273                 2.4190
 Frc consts  --      0.0010                 0.0029                 0.0045
 IR Inten    --      1.9692                 2.0859                 0.4312

                      4                      5                      6
                      A                      A                      A
 Frequencies --     69.7874                94.5758               118.7959
 Red. masses --      2.0310                 3.5168                 2.7687
 Frc consts  --      0.0058                 0.0185                 0.0230
 IR Inten    --      2.3690                 5.0762                 1.9348

                      7                      8                      9
                      A                      A                      A
 Frequencies --    127.0686               136.5563               161.7600
 Red. masses --      2.7840                 2.3577                 1.0658
 Frc consts  --      0.0265                 0.0259                 0.0164
 IR Inten    --      8.6372                 4.2772               160.1829

                     10                     11                     12
                      A                      A                      A
 Frequencies --    217.6282               242.9400               246.3202
 Red. masses --      2.7222                 1.1562                 1.2267
 Frc consts  --      0.0760                 0.0402                 0.0439
 IR Inten    --      1.3092                 0.2395                 0.5117

                     13                     14                     15
                      A                      A                      A
 Frequencies --    257.6477               269.8396               290.0224
 Red. masses --      3.7238                 3.0262                 4.6918
 Frc consts  --      0.1456                 0.1298                 0.2325
 IR Inten    --      0.5543                 1.3269                 0.0298

                     16                     17                     18
                      A                      A                      A
 Frequencies --    326.9774               396.9202               429.3909
 Red. masses --      2.9972                 3.1821                 4.0734
 Frc consts  --      0.1888                 0.2954                 0.4425
 IR Inten    --      7.0122                12.3366                 5.9883

                     19                     20                     21
                      A                      A                      A
 Frequencies --    459.2486               507.8011               684.1223
 Red. masses --      3.9975                 4.9845                 4.3357
 Frc consts  --      0.4967                 0.7573                 1.1956
 IR Inten    --      9.5809                38.5680                 8.2647

                     22                     23                     24
                      A                      A                      A
 Frequencies --    732.7586               741.9116               768.5617
 Red. masses --      1.1743                 1.0933                 1.6131
 Frc consts  --      0.3715                 0.3546                 0.5614
 IR Inten    --      3.1213                 6.6518                 9.4024

                     25                     26                     27
                      A                      A                      A
 Frequencies --    790.3144               805.2544               875.4121
 Red. masses --      1.2229                 2.1212                 4.8873
 Frc consts  --      0.4500                 0.8104                 2.2067
 IR Inten    --      0.5408                30.4744                87.0387

                     28                     29                     30
                      A                      A                      A
 Frequencies --    919.2972               920.0209               929.9889
 Red. masses --      1.7363                 1.7540                 1.3123
 Frc consts  --      0.8645                 0.8747                 0.6687
 IR Inten    --      1.2393                 4.7861                17.5493

                     31                     32                     33
                      A                      A                      A
 Frequencies --    945.5996              1018.9124              1027.0149
 Red. masses --      1.3771                 3.4814                 1.2527
 Frc consts  --      0.7255                 2.1295                 0.7785
 IR Inten    --     41.1606                 4.4462               105.6347

                     34                     35                     36
                      A                      A                      A
 Frequencies --   1034.7384              1070.5968              1072.3000
 Red. masses --      2.7026                 2.5580                 2.5356
 Frc consts  --      1.7049                 1.7274                 1.7177
 IR Inten    --     13.0556                 1.6091                 1.7184

                     37                     38                     39
                      A                      A                      A
 Frequencies --   1095.8966              1116.4276              1130.4968
 Red. masses --      1.2617                 1.7018                 2.1798
 Frc consts  --      0.8928                 1.2498                 1.6413
 IR Inten    --     22.8028                16.6301                16.3753

                     40                     41                     42
                      A                      A                      A
 Frequencies --   1137.9607              1221.5015              1233.7387
 Red. masses --      1.7693                 1.4995                 1.3949
 Frc consts  --      1.3499                 1.3182                 1.2509
 IR Inten    --      5.7118                 0.6468                 2.1495

                     43                     44                     45
                      A                      A                      A
 Frequencies --   1253.5717              1258.4425              1307.7888
 Red. masses --      1.3015                 1.3992                 1.1874
 Frc consts  --      1.2050                 1.3056                 1.1965
 IR Inten    --      8.6880                 8.9188                 2.8368

                     46                     47                     48
                      A                      A                      A
 Frequencies --   1310.3944              1325.8812              1339.7849
 Red. masses --      1.2283                 1.9155                 1.2412
 Frc consts  --      1.2427                 1.9840                 1.3127
 IR Inten    --      6.7855                65.4683                 3.9360

                     49                     50                     51
                      A                      A                      A
 Frequencies --   1341.8810              1347.1848              1363.3925
 Red. masses --      1.0828                 1.1257                 2.2127
 Frc consts  --      1.1488                 1.2038                 2.4233
 IR Inten    --      3.6937                 1.4666                76.8296

                     52                     53                     54
                      A                      A                      A
 Frequencies --   1390.9582              1397.4933              1425.6362
 Red. masses --      1.4633                 1.4839                 1.2451
 Frc consts  --      1.6680                 1.7075                 1.4910
 IR Inten    --      2.4561                 7.1071                 4.1779

                     55                     56                     57
                      A                      A                      A
 Frequencies --   1425.8515              1441.7705              1444.4823
 Red. masses --      1.2469                 1.0871                 1.0830
 Frc consts  --      1.4936                 1.3314                 1.3314
 IR Inten    --      3.2512                 7.4907                 8.3842

                     58                     59                     60
                      A                      A                      A
 Frequencies --   1489.8936              1494.5528              1496.3733
 Red. masses --      1.0831                 1.0603                 1.0534
 Frc consts  --      1.4165                 1.3954                 1.3898
 IR Inten    --      6.5698                 7.6596                 1.9245

                     61                     62                     63
                      A                      A                      A
 Frequencies --   1500.8708              1505.7013              1506.9174
 Red. masses --      1.0685                 1.0375                 1.0377
 Frc consts  --      1.4182                 1.3858                 1.3884
 IR Inten    --      0.2520                12.9488                13.7543

                     64                     65                     66
                      A                      A                      A
 Frequencies --   1511.1969              1514.7552              3047.0330
 Red. masses --      1.0906                 1.0904                 1.0595
 Frc consts  --      1.4675                 1.4741                 5.7958
 IR Inten    --     11.9312                14.7723                 9.6687

                     67                     68                     69
                      A                      A                      A
 Frequencies --   3055.7912              3066.1180              3067.8839
 Red. masses --      1.0596                 1.0528                 1.0577
 Frc consts  --      5.8293                 5.8312                 5.8656
 IR Inten    --      9.2056                 5.5919                 9.4779

                     70                     71                     72
                      A                      A                      A
 Frequencies --   3071.4611              3071.7796              3074.3553
 Red. masses --      1.0375                 1.0451                 1.0578
 Frc consts  --      5.7665                 5.8102                 5.8906
 IR Inten    --     11.3478                24.2227                 6.9735

                     73                     74                     75
                      A                      A                      A
 Frequencies --   3079.3007              3093.6379              3093.9873
 Red. masses --      1.0599                 1.1028                 1.1028
 Frc consts  --      5.9213                 6.2183                 6.2197
 IR Inten    --      4.6781                 5.4991                 1.5069

                     76                     77                     78
                      A                      A                      A
 Frequencies --   3113.5616              3124.1557              3136.0638
 Red. masses --      1.1065                 1.1068                 1.1074
 Frc consts  --      6.3200                 6.3647                 6.4167
 IR Inten    --      8.0451                 3.3254                 5.9739

                     79                     80                     81
                      A                      A                      A
 Frequencies --   3140.1488              3142.7849              3144.9526
 Red. masses --      1.1069                 1.1041                 1.1042
 Frc consts  --      6.4308                 6.4253                 6.4349
 IR Inten    --      2.2250                20.3417                14.6123

                     82                     83                     84
                      A                      A                      A
 Frequencies --   3158.5637              3159.5990              3778.3163
 Red. masses --      1.1021                 1.1015                 1.0667
 Frc consts  --      6.4780                 6.4786                 8.9720
 IR Inten    --      7.5229                 6.2450               155.4286

 - Thermochemistry -
 -------------------
 Temperature     0.001 Kelvin.  Pressure   1.00000 Atm.
 Atom     1 has atomic number  8 and mass  15.99491

 Molecular mass:   179.11058 amu.
 Principal axes and moments of inertia in atomic units:
                           1         2         3
     Eigenvalues --  1199.302064697.077645382.88301
           X            1.00000   0.00162  -0.00027
           Y           -0.00162   0.99999  -0.00489
           Z            0.00026   0.00489   0.99999
 This molecule is an asymmetric top.
 Rotational symmetry number  1.
 Warning -- assumption of classical behavior for rotation
           may cause significant error
 Rotational temperatures (Kelvin)      0.07222     0.01844     0.01609
 Rotational constants (GHZ):           1.50483     0.38423     0.33527
 Zero-point vibrational energy     704435.8 (Joules/Mol)
                                  168.36419 (Kcal/Mol)
 Vibrational temperatures:     41.40    67.72    80.93   100.41   136.07
          (Kelvin)            170.92   182.82   196.47   232.74   313.12
                              349.54   354.40   370.70   388.24   417.28
                              470.45   571.08   617.80   660.76   730.61
                              984.30  1054.28  1067.45  1105.79  1137.09
                             1158.58  1259.52  1322.66  1323.70  1338.05
                             1360.51  1465.99  1477.65  1488.76  1540.35
                             1542.80  1576.75  1606.29  1626.53  1637.27
                             1757.47  1775.07  1803.61  1810.62  1881.62
                             1885.37  1907.65  1927.65  1930.67  1938.30
                             1961.62  2001.28  2010.68  2051.17  2051.48
                             2074.39  2078.29  2143.62  2150.33  2152.95
                             2159.42  2166.37  2168.12  2174.28  2179.39
                             4384.00  4396.60  4411.46  4414.00  4419.15
                             4419.61  4423.31  4430.43  4451.05  4451.56
                             4479.72  4494.96  4512.10  4517.97  4521.77
                             4524.89  4544.47  4545.96  5436.15

 Zero-point correction=                           0.268305 (Hartree/Particle)
 Thermal correction to Energy=                    0.268305
 Thermal correction to Enthalpy=                  0.268305
 Thermal correction to Gibbs Free Energy=         0.268305
 Sum of electronic and zero-point Energies=           -864.244003
 Sum of electronic and thermal Energies=              -864.244003
 Sum of electronic and thermal Enthalpies=            -864.244003
 Sum of electronic and thermal Free Energies=         -864.244003

                     E (Thermal)             CV                S
                      KCal/Mol        Cal/Mol-Kelvin    Cal/Mol-Kelvin
 Total                  168.364              5.962            -26.959
 Electronic               0.000              0.000              0.000
 Translational            0.000              2.981            -21.168
 Rotational               0.000              2.981             -5.790
 Vibrational            168.364              0.000              0.000

 Optimization completed on the basis of negligible forces.
    -- Stationary point found.
 Normal termination of Gaussian 16 at Sun Oct 13 23:23:28 2019.
