 Gaussian 16, Revision A.03,
 Gaussian 16:  ES64L-G16RevA.03 25-Dec-2016

 -------------------------------------------------------------------
 #P opt freq m062x/6-311++g(d,p) geom=connectivity temperature=0.001
 -------------------------------------------------------------------

 -------------------
 Title Card Required
 -------------------
 Symbolic Z-matrix:
 Charge =  0 Multiplicity = 1

 SCF Done:  E(RM062X) =  -788.926389240     A.U. after   14 cycles
 SCF Done:  E(RM062X) =  -788.952527019     A.U. after   13 cycles
 SCF Done:  E(RM062X) =  -788.966617917     A.U. after   12 cycles
 SCF Done:  E(RM062X) =  -788.968569791     A.U. after   11 cycles
 SCF Done:  E(RM062X) =  -788.970379250     A.U. after   11 cycles
 SCF Done:  E(RM062X) =  -788.970977142     A.U. after   10 cycles
 SCF Done:  E(RM062X) =  -788.971628797     A.U. after   11 cycles
 SCF Done:  E(RM062X) =  -788.973575838     A.U. after   12 cycles
 SCF Done:  E(RM062X) =  -788.972545011     A.U. after   12 cycles
 SCF Done:  E(RM062X) =  -788.974814642     A.U. after   11 cycles
 SCF Done:  E(RM062X) =  -788.972775998     A.U. after   11 cycles
 SCF Done:  E(RM062X) =  -788.975230293     A.U. after   12 cycles
 SCF Done:  E(RM062X) =  -788.975215582     A.U. after   10 cycles
 SCF Done:  E(RM062X) =  -788.975253584     A.U. after    9 cycles
 SCF Done:  E(RM062X) =  -788.975156764     A.U. after   10 cycles
 SCF Done:  E(RM062X) =  -788.975254381     A.U. after    9 cycles
 SCF Done:  E(RM062X) =  -788.975254390     A.U. after    8 cycles
 SCF Done:  E(RM062X) =  -788.975254306     A.U. after    6 cycles
 SCF Done:  E(RM062X) =  -788.975254599     A.U. after    7 cycles
 Optimization completed.
    -- Stationary point found.
 Normal termination of Gaussian 16 at Sun Oct 13 23:19:09 2019.

 ----------------------------------------------------------------------
 #P Geom=AllCheck Guess=TCheck SCRF=Check GenChk RM062X/6-311++G(d,p) F
 req
 ----------------------------------------------------------------------

 Structure from the checkpoint file:  "31.chk"
 -------------------
 Title Card Required
 -------------------
 Charge =  0 Multiplicity = 1

                         Standard orientation:
 ---------------------------------------------------------------------
 Center     Atomic      Atomic             Coordinates (Angstroms)
 Number     Number       Type             X           Y           Z
 ---------------------------------------------------------------------
      1          6           0        5.201534   -0.004824    0.153516
      2          6           0        3.871178   -0.746726    0.253286
      3          6           0        2.693524    0.127799   -0.175659
      4          6           0        1.366168   -0.610717   -0.072485
      5         16           0       -0.000002    0.518395   -0.496916
      6          6           0       -1.366162   -0.610725   -0.072457
      7          6           0       -2.693515    0.127794   -0.175617
      8          6           0       -3.871182   -0.746733    0.253290
      9          6           0       -5.201551   -0.004818    0.153492
     10          8           0        0.000007    1.586199    0.571715
     11          1           0        5.391768    0.317171   -0.873353
     12          1           0        5.196385    0.886018    0.786069
     13          1           0        6.034666   -0.636133    0.467447
     14          1           0        3.902153   -1.648420   -0.367769
     15          1           0        3.711708   -1.082607    1.283114
     16          1           0        2.643480    1.020264    0.455427
     17          1           0        2.845911    0.470496   -1.205128
     18          1           0        1.314403   -1.459971   -0.760312
     19          1           0        1.184852   -0.951931    0.950853
     20          1           0       -1.314405   -1.459978   -0.760286
     21          1           0       -1.184827   -0.951937    0.950879
     22          1           0       -2.643469    1.020245    0.455488
     23          1           0       -2.845890    0.470519   -1.205079
     24          1           0       -3.902129   -1.648414   -0.367783
     25          1           0       -3.711731   -1.082640    1.283112
     26          1           0       -5.391778    0.317153   -0.873385
     27          1           0       -6.034698   -0.636100    0.467436
     28          1           0       -5.196399    0.886052    0.786003
 ---------------------------------------------------------------------

 SCF Done:  E(RM062X) =  -788.975254599     A.U. after    1 cycles

 The electronic state is 1-A.
 Alpha  occ. eigenvalues --  -89.98871 -19.57183 -10.56986 -10.56985 -10.54349
 Alpha  occ. eigenvalues --  -10.54349 -10.54045 -10.54045 -10.52764 -10.52764
 Alpha  occ. eigenvalues --   -8.34588  -6.26647  -6.26572  -6.26230  -1.12187
 Alpha  occ. eigenvalues --   -0.92574  -0.91312  -0.86855  -0.83601  -0.77530
 Alpha  occ. eigenvalues --   -0.72555  -0.67914  -0.67050  -0.67016  -0.57149
 Alpha  occ. eigenvalues --   -0.56031  -0.53674  -0.52105  -0.51648  -0.49843
 Alpha  occ. eigenvalues --   -0.49150  -0.48976  -0.45490  -0.45126  -0.44643
 Alpha  occ. eigenvalues --   -0.42772  -0.42001  -0.41445  -0.40516  -0.40503
 Alpha  occ. eigenvalues --   -0.39588  -0.39570  -0.39007  -0.32472  -0.28840
 Alpha virt. eigenvalues --   -0.00711   0.00141   0.00758   0.00816   0.01936
 Alpha virt. eigenvalues --    0.02045   0.02259   0.03156   0.03830   0.04236
 Alpha virt. eigenvalues --    0.04450   0.05100   0.05269   0.05860   0.06150

 Mulliken charges:
               1
     1  C   -0.635819
     2  C   -0.203577
     3  C   -0.292079
     4  C   -0.548595
     5  S    0.772835
     6  C   -0.548612
     7  C   -0.292085
     8  C   -0.203570
     9  C   -0.635836
    10  O   -0.437311
    11  H    0.148442
    12  H    0.156510
    13  H    0.176201
    14  H    0.147000
    15  H    0.156240
    16  H    0.178246
    17  H    0.158986
    18  H    0.157560
    19  H    0.233137
    20  H    0.157559
    21  H    0.233140
    22  H    0.178245
    23  H    0.158986
    24  H    0.146998
    25  H    0.156238
    26  H    0.148446
    27  H    0.176204
    28  H    0.156511
 Sum of Mulliken charges =  -0.00000

 Dipole moment (field-independent basis, Debye):
    X=              0.0000    Y=             -3.9386    Z=             -1.3424  Tot=              4.1611
 Quadrupole moment (field-independent basis, Debye-Ang):
   XX=            -65.1552   YY=            -78.8544   ZZ=            -73.6071
   XY=             -0.0001   XZ=             -0.0000   YZ=             -2.1190

  Exact polarizability: 160.552  -0.000 109.691  -0.000   0.874  99.643
 Approx polarizability: 143.498  -0.000 145.157  -0.000   4.965 132.970

                      1                      2                      3
                      A                      A                      A
 Frequencies --     34.3597                53.6832                56.4538
 Red. masses --      3.2434                 1.6959                 3.9078
 Frc consts  --      0.0023                 0.0029                 0.0073
 IR Inten    --      0.1863                 0.8040                 0.1791

                      4                      5                      6
                      A                      A                      A
 Frequencies --     80.6950                83.5269               129.4462
 Red. masses --      2.0442                 2.6355                 2.1879
 Frc consts  --      0.0078                 0.0108                 0.0216
 IR Inten    --      3.6796                 2.5981                 2.4899

                      7                      8                      9
                      A                      A                      A
 Frequencies --    133.3611               144.1687               215.1651
 Red. masses --      2.2319                 3.0957                 3.6332
 Frc consts  --      0.0234                 0.0379                 0.0991
 IR Inten    --      0.2059                 1.7719                 0.0120

                     10                     11                     12
                      A                      A                      A
 Frequencies --    243.9077               244.5685               265.3724
 Red. masses --      1.1937                 1.1349                 3.4411
 Frc consts  --      0.0418                 0.0400                 0.1428
 IR Inten    --      1.0495                 0.2226                 0.0516

                     13                     14                     15
                      A                      A                      A
 Frequencies --    270.0077               366.5065               391.9943
 Red. masses --      3.2513                 3.2046                 3.0468
 Frc consts  --      0.1397                 0.2536                 0.2758
 IR Inten    --      6.0887                 6.8131                 5.0837

                     16                     17                     18
                      A                      A                      A
 Frequencies --    431.7659               457.3413               721.5711
 Red. masses --      5.1299                 2.9864                 2.6748
 Frc consts  --      0.5634                 0.3680                 0.8205
 IR Inten    --     11.3902                 1.6386                 5.3523

                     19                     20                     21
                      A                      A                      A
 Frequencies --    740.4473               742.3609               750.8811
 Red. masses --      1.1764                 1.1652                 3.2801
 Frc consts  --      0.3800                 0.3783                 1.0896
 IR Inten    --      1.1027                 8.1745                 3.6315

                     22                     23                     24
                      A                      A                      A
 Frequencies --    786.5505               801.8546               911.3560
 Red. masses --      1.2600                 1.2632                 1.7468
 Frc consts  --      0.4593                 0.4785                 0.8548
 IR Inten    --      1.6271                 1.9046                 1.2352

                     25                     26                     27
                      A                      A                      A
 Frequencies --    918.4447               920.6574               932.6868
 Red. masses --      1.6791                 1.2747                 1.3150
 Frc consts  --      0.8345                 0.6366                 0.6740
 IR Inten    --      1.7259                 0.3036                 5.3825

                     28                     29                     30
                      A                      A                      A
 Frequencies --   1037.9185              1042.4132              1053.6585
 Red. masses --      3.1040                 4.1580                 3.4731
 Frc consts  --      1.9701                 2.6620                 2.2718
 IR Inten    --      0.4933                89.4656                21.3983

                     31                     32                     33
                      A                      A                      A
 Frequencies --   1072.5653              1085.0558              1091.7617
 Red. masses --      1.2287                 2.1789                 2.2220
 Frc consts  --      0.8328                 1.5115                 1.5604
 IR Inten    --      3.2058                 1.6263                 1.6974

                     34                     35                     36
                      A                      A                      A
 Frequencies --   1105.7515              1117.1124              1139.1086
 Red. masses --      1.5085                 2.0138                 2.4631
 Frc consts  --      1.0867                 1.4807                 1.8831
 IR Inten    --     12.0978                16.2810                 0.1044

                     37                     38                     39
                      A                      A                      A
 Frequencies --   1224.9654              1232.4766              1235.0600
 Red. masses --      1.5107                 1.4768                 1.3533
 Frc consts  --      1.3356                 1.3217                 1.2162
 IR Inten    --      0.0103                 0.3202                 0.9819

                     40                     41                     42
                      A                      A                      A
 Frequencies --   1256.2017              1309.3071              1317.0515
 Red. masses --      1.2947                 1.1932                 1.1886
 Frc consts  --      1.2037                 1.2052                 1.2147
 IR Inten    --      0.4633                 0.0040                 0.4290

                     43                     44                     45
                      A                      A                      A
 Frequencies --   1334.5859              1336.7775              1338.7670
 Red. masses --      1.2560                 1.1426                 1.0622
 Frc consts  --      1.3180                 1.2030                 1.1217
 IR Inten    --      0.0057                 0.8274                 1.1701

                     46                     47                     48
                      A                      A                      A
 Frequencies --   1345.3093              1401.0362              1404.3824
 Red. masses --      1.3709                 1.5480                 1.5573
 Frc consts  --      1.4619                 1.7903                 1.8096
 IR Inten    --      0.3754                 4.6954                 0.0693

                     49                     50                     51
                      A                      A                      A
 Frequencies --   1417.0502              1417.1249              1445.4510
 Red. masses --      1.2870                 1.2840                 1.1122
 Frc consts  --      1.5227                 1.5193                 1.3692
 IR Inten    --      4.1019                 4.0584                 1.4521

                     52                     53                     54
                      A                      A                      A
 Frequencies --   1457.6196              1493.7124              1494.0594
 Red. masses --      1.1180                 1.0640                 1.0641
 Frc consts  --      1.3995                 1.3987                 1.3995
 IR Inten    --      6.4838                 2.9054                 0.2379

                     55                     56                     57
                      A                      A                      A
 Frequencies --   1501.7858              1502.0075              1504.8704
 Red. masses --      1.0684                 1.0688                 1.0411
 Frc consts  --      1.4197                 1.4207                 1.3891
 IR Inten    --      0.6808                 1.3661                 0.1400

                     58                     59                     60
                      A                      A                      A
 Frequencies --   1504.8971              1514.5705              1514.6881
 Red. masses --      1.0415                 1.0857                 1.0860
 Frc consts  --      1.3896                 1.4674                 1.4679
 IR Inten    --     18.0791                 0.7839                21.2601

                     61                     62                     63
                      A                      A                      A
 Frequencies --   3046.9427              3047.2894              3053.8018
 Red. masses --      1.0598                 1.0600                 1.0597
 Frc consts  --      5.7968                 5.7997                 5.8225
 IR Inten    --      0.8660                15.9384                 0.0063

                     64                     65                     66
                      A                      A                      A
 Frequencies --   3054.7743              3060.3711              3060.8802
 Red. masses --      1.0607                 1.0427                 1.0367
 Frc consts  --      5.8316                 5.7539                 5.7228
 IR Inten    --     19.9184                19.2497                11.6462

                     67                     68                     69
                      A                      A                      A
 Frequencies --   3061.6249              3064.2584              3081.1999
 Red. masses --      1.0526                 1.0580                 1.1000
 Frc consts  --      5.8135                 5.8533                 6.1529
 IR Inten    --     28.3620                45.6978                 2.2513

                     70                     71                     72
                      A                      A                      A
 Frequencies --   3081.3188              3104.3380              3105.3072
 Red. masses --      1.0999                 1.1039                 1.1040
 Frc consts  --      6.1529                 6.2679                 6.2722
 IR Inten    --     13.7762                 0.0368                 8.2072

                     73                     74                     75
                      A                      A                      A
 Frequencies --   3126.8785              3130.5492              3132.3593
 Red. masses --      1.1083                 1.1057                 1.1034
 Frc consts  --      6.3847                 6.3845                 6.3787
 IR Inten    --      0.1051                 7.4716                 0.0346

                     76                     77                     78
                      A                      A                      A
 Frequencies --   3133.4425              3138.6804              3138.7281
 Red. masses --      1.1053                 1.1022                 1.1022
 Frc consts  --      6.3940                 6.3973                 6.3974
 IR Inten    --     83.6966                20.2726                32.4998

 - Thermochemistry -
 -------------------
 Temperature     0.001 Kelvin.  Pressure   1.00000 Atm.
 Atom     1 has atomic number  6 and mass  12.00000

 Molecular mass:   162.10784 amu.
 Principal axes and moments of inertia in atomic units:
                           1         2         3
     Eigenvalues --   427.346575494.956365713.70451
           X            1.00000  -0.00000   0.00000
           Y            0.00000   0.99982  -0.01902
           Z           -0.00000   0.01902   0.99982
 This molecule is an asymmetric top.
 Rotational symmetry number  1.
 Rotational temperatures (Kelvin)      0.20268     0.01576     0.01516
 Rotational constants (GHZ):           4.22313     0.32844     0.31586
 Zero-point vibrational energy     662138.9 (Joules/Mol)
                                  158.25500 (Kcal/Mol)
 Vibrational temperatures:     49.44    77.24    81.22   116.10   120.18
          (Kelvin)            186.24   191.88   207.43   309.57   350.93
                              351.88   381.81   388.48   527.32   563.99
                              621.21   658.01  1038.18  1065.34  1068.09
                             1080.35  1131.67  1153.69  1311.24  1321.44
                             1324.62  1341.93  1493.33  1499.80  1515.98
                             1543.18  1561.15  1570.80  1590.93  1607.28
                             1638.92  1762.45  1773.26  1776.98  1807.39
                             1883.80  1894.94  1920.17  1923.32  1926.19
                             1935.60  2015.78  2020.59  2038.82  2038.93
                             2079.68  2097.19  2149.12  2149.62  2160.73
                             2161.05  2165.17  2165.21  2179.13  2179.30
                             4383.87  4384.37  4393.74  4395.14  4403.19
                             4403.92  4405.00  4408.78  4433.16  4433.33
                             4466.45  4467.84  4498.88  4504.16  4506.77
                             4508.32  4515.86  4515.93

 Zero-point correction=                           0.252195 (Hartree/Particle)
 Thermal correction to Energy=                    0.252195
 Thermal correction to Enthalpy=                  0.252195
 Thermal correction to Gibbs Free Energy=         0.252195
 Sum of electronic and zero-point Energies=           -788.723059
 Sum of electronic and thermal Energies=              -788.723059
 Sum of electronic and thermal Enthalpies=            -788.723059
 Sum of electronic and thermal Free Energies=         -788.723059

                     E (Thermal)             CV                S
                      KCal/Mol        Cal/Mol-Kelvin    Cal/Mol-Kelvin
 Total                  158.255              5.962            -28.066
 Electronic               0.000              0.000              0.000
 Translational            0.000              2.981            -21.466
 Rotational               0.000              2.981             -6.601
 Vibrational            158.255              0.000              0.000

 Optimization completed.
    -- Stationary point found.
 Normal termination of Gaussian 16 at Sun Oct 13 23:23:13 2019.
