 Gaussian 16, Revision A.03,
 Gaussian 16:  ES64L-G16RevA.03 25-Dec-2016

 -------------------------------------------------------------------
 #P opt freq m062x/6-311++g(d,p) geom=connectivity temperature=0.001
 -------------------------------------------------------------------

 -------------------
 Title Card Required
 -------------------
 Symbolic Z-matrix:
 Charge =  0 Multiplicity = 1

 SCF Done:  E(RM062X) =  -936.541401610     A.U. after   18 cycles
 SCF Done:  E(RM062X) =  -936.554487493     A.U. after   17 cycles
 SCF Done:  E(RM062X) =  -936.559107016     A.U. after   18 cycles
 SCF Done:  E(RM062X) =  -936.561052067     A.U. after   17 cycles
 SCF Done:  E(RM062X) =  -936.561406929     A.U. after   16 cycles
 SCF Done:  E(RM062X) =  -936.561470391     A.U. after   15 cycles
 SCF Done:  E(RM062X) =  -936.561478748     A.U. after   14 cycles
 SCF Done:  E(RM062X) =  -936.561474626     A.U. after   13 cycles
 SCF Done:  E(RM062X) =  -936.561474743     A.U. after   11 cycles
 SCF Done:  E(RM062X) =  -936.561474763     A.U. after   10 cycles
 Optimization completed.
    -- Stationary point found.
 Normal termination of Gaussian 16 at Sun Oct 13 23:19:22 2019.

 ----------------------------------------------------------------------
 #P Geom=AllCheck Guess=TCheck SCRF=Check GenChk RM062X/6-311++G(d,p) F
 req
 ----------------------------------------------------------------------

 Structure from the checkpoint file:  "32.chk"
 -------------------
 Title Card Required
 -------------------
 Charge =  0 Multiplicity = 1

                         Standard orientation:
 ---------------------------------------------------------------------
 Center     Atomic      Atomic             Coordinates (Angstroms)
 Number     Number       Type             X           Y           Z
 ---------------------------------------------------------------------
      1          8           0        0.000004    2.543023    0.225703
      2         16           0        0.000000    1.257410    1.008809
      3          6           0       -1.353761    0.261496    0.324767
      4          6           0       -1.763416   -0.897572    0.971868
      5          6           0       -2.810084   -1.635205    0.430531
      6          6           0       -3.439667   -1.199891   -0.732874
      7          6           0       -3.028906   -0.024994   -1.355037
      8          6           0       -1.979289    0.719170   -0.824383
      9          6           0        1.353761    0.261492    0.324769
     10          6           0        1.763400   -0.897587    0.971860
     11          6           0        2.810067   -1.635221    0.430525
     12          6           0        3.439666   -1.199897   -0.732868
     13          6           0        3.028921   -0.024991   -1.355021
     14          6           0        1.979304    0.719175   -0.824369
     15          1           0       -1.281238   -1.218820    1.888983
     16          1           0       -3.141006   -2.542403    0.921527
     17          1           0       -4.259083   -1.773697   -1.148894
     18          1           0       -3.529606    0.317012   -2.252940
     19          1           0       -1.643805    1.648634   -1.271274
     20          1           0        1.281208   -1.218844    1.888965
     21          1           0        3.140977   -2.542428    0.921513
     22          1           0        4.259083   -1.773705   -1.148887
     23          1           0        3.529633    0.317024   -2.252915
     24          1           0        1.643831    1.648647   -1.271252
 ---------------------------------------------------------------------

 SCF Done:  E(RM062X) =  -936.561474763     A.U. after    1 cycles

 The electronic state is 1-A.
 Alpha  occ. eigenvalues --  -90.00798 -19.58850 -10.58119 -10.58118 -10.56711
 Alpha  occ. eigenvalues --  -10.56711 -10.56155 -10.56155 -10.55960 -10.55960
 Alpha  occ. eigenvalues --  -10.55891 -10.55891 -10.55841 -10.55841  -8.36432
 Alpha  occ. eigenvalues --   -6.28498  -6.28407  -6.28079  -1.14085  -0.98657
 Alpha  occ. eigenvalues --   -0.98061  -0.89381  -0.86337  -0.86207  -0.86102
 Alpha  occ. eigenvalues --   -0.78377  -0.71230  -0.70669  -0.69973  -0.67001
 Alpha  occ. eigenvalues --   -0.61901  -0.60425  -0.54802  -0.54675  -0.53837
 Alpha  occ. eigenvalues --   -0.53667  -0.51535  -0.51501  -0.50754  -0.50492
 Alpha  occ. eigenvalues --   -0.47144  -0.45246  -0.45081  -0.43230  -0.42986
 Alpha  occ. eigenvalues --   -0.42122  -0.42047  -0.34894  -0.34662  -0.32805
 Alpha  occ. eigenvalues --   -0.32160  -0.31425  -0.29705
 Alpha virt. eigenvalues --   -0.01667  -0.00878  -0.00407   0.00099   0.00453
 Alpha virt. eigenvalues --    0.00720   0.01229   0.01636   0.01829   0.02917
 Alpha virt. eigenvalues --    0.03029   0.03170   0.05053   0.05140   0.05807

 Mulliken charges:
               1
     1  O   -0.457111
     2  S    0.724124
     3  C   -0.114547
     4  C   -0.488095
     5  C   -0.422519
     6  C   -0.214504
     7  C   -0.415193
     8  C    0.462447
     9  C   -0.114518
    10  C   -0.488124
    11  C   -0.422526
    12  C   -0.214501
    13  C   -0.415201
    14  C    0.462465
    15  H    0.152263
    16  H    0.219548
    17  H    0.196290
    18  H    0.217224
    19  H    0.273578
    20  H    0.152258
    21  H    0.219549
    22  H    0.196290
    23  H    0.217224
    24  H    0.273580
 Sum of Mulliken charges =  -0.00000

 Dipole moment (field-independent basis, Debye):
    X=             -0.0000    Y=             -4.3891    Z=             -0.3448  Tot=              4.4026
 Quadrupole moment (field-independent basis, Debye-Ang):
   XX=            -78.9304   YY=            -95.9137   ZZ=            -83.2450
   XY=              0.0001   XZ=             -0.0001   YZ=             -5.8970

  Exact polarizability: 180.331   0.000 147.323  -0.000 -14.978 133.043
 Approx polarizability: 197.605   0.000 209.249  -0.000 -31.166 192.544

                      1                      2                      3
                      A                      A                      A
 Frequencies --     11.5800                42.8695                65.4270
 Red. masses --      3.7241                 5.0080                 4.5138
 Frc consts  --      0.0003                 0.0054                 0.0114
 IR Inten    --      0.1542                 0.6110                 0.1073

                      4                      5                      6
                      A                      A                      A
 Frequencies --    160.9905               190.7474               207.3577
 Red. masses --      4.7787                 6.9616                 5.4049
 Frc consts  --      0.0730                 0.1492                 0.1369
 IR Inten    --      0.0842                 6.5170                 5.9081

                      7                      8                      9
                      A                      A                      A
 Frequencies --    248.8074               303.8356               361.2292
 Red. masses --      4.7044                 8.2160                 8.2422
 Frc consts  --      0.1716                 0.4469                 0.6337
 IR Inten    --      2.8202                 1.3928                 0.9422

                     10                     11                     12
                      A                      A                      A
 Frequencies --    407.2707               414.9957               449.8548
 Red. masses --      2.8876                 2.9507                 4.3831
 Frc consts  --      0.2822                 0.2994                 0.5226
 IR Inten    --      1.9448                 0.1536                 2.5852

                     13                     14                     15
                      A                      A                      A
 Frequencies --    472.9263               486.6669               546.8210
 Red. masses --      6.4519                 6.6138                 4.6647
 Frc consts  --      0.8502                 0.9229                 0.8218
 IR Inten    --      0.5414                41.5975                57.1445

                     16                     17                     18
                      A                      A                      A
 Frequencies --    623.6299               625.5440               701.5114
 Red. masses --      6.4209                 6.4438                 2.5763
 Frc consts  --      1.4713                 1.4856                 0.7470
 IR Inten    --      0.0837                 0.1692                18.4589

                     19                     20                     21
                      A                      A                      A
 Frequencies --    705.1189               708.8268               712.8781
 Red. masses --      5.9962                 6.6424                 2.4086
 Frc consts  --      1.7565                 1.9663                 0.7212
 IR Inten    --      0.0636                 0.7002                53.6814

                     22                     23                     24
                      A                      A                      A
 Frequencies --    757.8082               775.6503               865.7050
 Red. masses --      1.4129                 1.5624                 1.2517
 Frc consts  --      0.4780                 0.5538                 0.5527
 IR Inten    --     60.3867                30.8820                 0.2492

                     25                     26                     27
                      A                      A                      A
 Frequencies --    875.8231               941.6905               953.6471
 Red. masses --      1.2394                 1.3246                 1.3369
 Frc consts  --      0.5601                 0.6921                 0.7163
 IR Inten    --      0.1102                 2.2702                 0.8651

                     28                     29                     30
                      A                      A                      A
 Frequencies --   1007.6988              1011.8720              1012.0304
 Red. masses --      1.3682                 1.3745                 6.4025
 Frc consts  --      0.8186                 0.8292                 3.8635
 IR Inten    --      0.3047                 0.0354                 3.9677

                     31                     32                     33
                      A                      A                      A
 Frequencies --   1013.7084              1026.7350              1027.2768
 Red. masses --      5.9029                 1.3015                 1.3033
 Frc consts  --      3.5739                 0.8084                 0.8103
 IR Inten    --      6.3958                 0.1133                 0.1835

                     34                     35                     36
                      A                      A                      A
 Frequencies --   1052.2434              1054.2447              1063.4388
 Red. masses --      2.5819                 2.6070                 7.7329
 Frc consts  --      1.6843                 1.7072                 5.1525
 IR Inten    --      6.8840                 3.5800               111.4264

                     37                     38                     39
                      A                      A                      A
 Frequencies --   1095.5323              1104.4790              1111.6092
 Red. masses --      2.3055                 1.6714                 1.6501
 Frc consts  --      1.6303                 1.2013                 1.2014
 IR Inten    --      8.4842                 0.1735                11.9308

                     40                     41                     42
                      A                      A                      A
 Frequencies --   1115.6314              1178.4521              1179.5778
 Red. masses --      2.8578                 1.1651                 1.1540
 Frc consts  --      2.0957                 0.9533                 0.9460
 IR Inten    --     22.8203                 0.1756                 0.1542

                     43                     44                     45
                      A                      A                      A
 Frequencies --   1195.1337              1200.0226              1317.8281
 Red. masses --      1.1446                 1.1446                 2.9278
 Frc consts  --      0.9633                 0.9711                 2.9958
 IR Inten    --      3.7790                 0.2055                 0.5584

                     46                     47                     48
                      A                      A                      A
 Frequencies --   1324.2459              1336.9861              1341.9464
 Red. masses --      2.8170                 1.6783                 1.7144
 Frc consts  --      2.9106                 1.7676                 1.8190
 IR Inten    --      0.0075                 1.8431                 5.6530

                     49                     50                     51
                      A                      A                      A
 Frequencies --   1484.0098              1485.6771              1514.6824
 Red. masses --      2.2578                 2.2735                 2.1602
 Frc consts  --      2.9296                 2.9567                 2.9200
 IR Inten    --      2.0241                22.5501                15.1724

                     52                     53                     54
                      A                      A                      A
 Frequencies --   1519.3753              1654.1916              1657.4670
 Red. masses --      2.1687                 5.7994                 5.7912
 Frc consts  --      2.9497                 9.3499                 9.3736
 IR Inten    --      5.2039                 9.6023                 0.3158

                     55                     56                     57
                      A                      A                      A
 Frequencies --   1658.7061              1661.3726              3193.5059
 Red. masses --      6.3879                 6.3414                 1.0885
 Frc consts  --     10.3549                10.3127                 6.5405
 IR Inten    --      0.5223                 0.6016                 0.6326

                     58                     59                     60
                      A                      A                      A
 Frequencies --   3198.2926              3203.9977              3205.1726
 Red. masses --      1.0870                 1.0874                 1.0880
 Frc consts  --      6.5513                 6.5772                 6.5856
 IR Inten    --      1.1623                 0.9750                 4.4247

                     61                     62                     63
                      A                      A                      A
 Frequencies --   3211.2014              3211.8969              3219.4092
 Red. masses --      1.0909                 1.0912                 1.0950
 Frc consts  --      6.6278                 6.6328                 6.6867
 IR Inten    --      0.7178                 7.7592                 2.0120

                     64                     65                     66
                      A                      A                      A
 Frequencies --   3219.8767              3228.0213              3228.3251
 Red. masses --      1.0951                 1.0989                 1.0989
 Frc consts  --      6.6894                 6.7464                 6.7480
 IR Inten    --      8.6055                16.9641                 7.9954

 - Thermochemistry -
 -------------------
 Temperature     0.001 Kelvin.  Pressure   1.00000 Atm.
 Atom     1 has atomic number  8 and mass  15.99491

 Molecular mass:   202.04524 amu.
 Principal axes and moments of inertia in atomic units:
                           1         2         3
     Eigenvalues --  1696.887544132.183774682.58656
           X            1.00000   0.00000  -0.00000
           Y           -0.00000   0.99763  -0.06883
           Z            0.00000   0.06883   0.99763
 This molecule is an asymmetric top.
 Rotational symmetry number  1.
 Warning -- assumption of classical behavior for rotation
           may cause significant error
 Rotational temperatures (Kelvin)      0.05104     0.02096     0.01850
 Rotational constants (GHZ):           1.06356     0.43675     0.38542
 Zero-point vibrational energy     491336.7 (Joules/Mol)
                                  117.43230 (Kcal/Mol)
 Vibrational temperatures:     16.66    61.68    94.13   231.63   274.44
          (Kelvin)            298.34   357.98   437.15   519.73   585.97
                              597.09   647.24   680.44   700.21   786.75
                              897.26   900.02  1009.32  1014.51  1019.84
                             1025.67  1090.32  1115.99  1245.56  1260.11
                             1354.88  1372.09  1449.85  1455.86  1456.09
                             1458.50  1477.24  1478.02  1513.94  1516.82
                             1530.05  1576.23  1589.10  1599.36  1605.14
                             1695.53  1697.15  1719.53  1726.56  1896.06
                             1905.29  1923.62  1930.76  2135.16  2137.56
                             2179.29  2186.04  2380.01  2384.73  2386.51
                             2390.34  4594.74  4601.63  4609.84  4611.53
                             4620.20  4621.20  4632.01  4632.68  4644.40
                             4644.84

 Zero-point correction=                           0.187140 (Hartree/Particle)
 Thermal correction to Energy=                    0.187140
 Thermal correction to Enthalpy=                  0.187140
 Thermal correction to Gibbs Free Energy=         0.187140
 Sum of electronic and zero-point Energies=           -936.374334
 Sum of electronic and thermal Energies=              -936.374334
 Sum of electronic and thermal Enthalpies=            -936.374334
 Sum of electronic and thermal Free Energies=         -936.374334

                     E (Thermal)             CV                S
                      KCal/Mol        Cal/Mol-Kelvin    Cal/Mol-Kelvin
 Total                  117.432              5.962            -26.520
 Electronic               0.000              0.000              0.000
 Translational            0.000              2.981            -20.809
 Rotational               0.000              2.981             -5.711
 Vibrational            117.432              0.000              0.000

                           ! Non-Optimized Parameters !
 Normal termination of Gaussian 16 at Sun Oct 13 23:24:45 2019.
