 Gaussian 16, Revision A.03,
 Gaussian 16:  ES64L-G16RevA.03 25-Dec-2016

 -------------------------------------------------------------------
 #p opt freq m062x/6-311++g(d,p) geom=connectivity temperature=0.001
 -------------------------------------------------------------------

 -------------------
 Title Card Required
 -------------------
 Symbolic Z-matrix:
 Charge =  1 Multiplicity = 1

 SCF Done:  E(RM062X) =  -936.898131187     A.U. after   15 cycles
 SCF Done:  E(RM062X) =  -936.911823080     A.U. after   17 cycles
 SCF Done:  E(RM062X) =  -936.919679319     A.U. after   17 cycles
 SCF Done:  E(RM062X) =  -936.921842008     A.U. after   17 cycles
 SCF Done:  E(RM062X) =  -936.922337593     A.U. after   17 cycles
 SCF Done:  E(RM062X) =  -936.922822609     A.U. after   15 cycles
 SCF Done:  E(RM062X) =  -936.923151431     A.U. after   15 cycles
 SCF Done:  E(RM062X) =  -936.923624146     A.U. after   14 cycles
 SCF Done:  E(RM062X) =  -936.924045963     A.U. after   15 cycles
 SCF Done:  E(RM062X) =  -936.924319501     A.U. after   15 cycles
 SCF Done:  E(RM062X) =  -936.925286771     A.U. after   12 cycles
 SCF Done:  E(RM062X) =  -936.925286502     A.U. after   13 cycles
 SCF Done:  E(RM062X) =  -936.925286851     A.U. after   13 cycles
 SCF Done:  E(RM062X) =  -936.925284287     A.U. after   15 cycles
 SCF Done:  E(RM062X) =  -936.925287390     A.U. after   14 cycles
 SCF Done:  E(RM062X) =  -936.925287925     A.U. after   13 cycles
 SCF Done:  E(RM062X) =  -936.925287997     A.U. after   12 cycles
 SCF Done:  E(RM062X) =  -936.925287826     A.U. after   12 cycles
 SCF Done:  E(RM062X) =  -936.925287902     A.U. after   11 cycles
 Optimization completed.
    -- Stationary point found.
 Normal termination of Gaussian 16 at Sun Oct 13 23:29:22 2019.

 ----------------------------------------------------------------------
 #P Geom=AllCheck Guess=TCheck SCRF=Check GenChk RM062X/6-311++G(d,p) F
 req
 ----------------------------------------------------------------------

 Structure from the checkpoint file:  "32_p.chk"
 -------------------
 Title Card Required
 -------------------
 Charge =  1 Multiplicity = 1

                         Standard orientation:
 ---------------------------------------------------------------------
 Center     Atomic      Atomic             Coordinates (Angstroms)
 Number     Number       Type             X           Y           Z
 ---------------------------------------------------------------------
      1          8           0       -0.028888    2.237072    0.942649
      2         16           0       -0.067299    1.358258   -0.432088
      3          6           0        1.404882    0.373100   -0.229352
      4          6           0        1.791798   -0.376529   -1.336034
      5          6           0        2.920135   -1.177520   -1.219549
      6          6           0        3.634175   -1.207505   -0.024216
      7          6           0        3.229034   -0.440120    1.063272
      8          6           0        2.098297    0.365775    0.974281
      9          6           0       -1.398860    0.238743   -0.133822
     10          6           0       -2.575570    0.496149   -0.836638
     11          6           0       -3.671421   -0.326995   -0.609878
     12          6           0       -3.574502   -1.372753    0.302446
     13          6           0       -2.386715   -1.614202    0.993587
     14          6           0       -1.279296   -0.809057    0.778774
     15          1           0        1.234921   -0.339690   -2.266142
     16          1           0        3.245353   -1.768506   -2.066218
     17          1           0        4.517712   -1.828539    0.056773
     18          1           0        3.793166   -0.462456    1.987161
     19          1           0        1.775127    0.973667    1.809202
     20          1           0       -2.633718    1.312984   -1.547143
     21          1           0       -4.595301   -0.151843   -1.145982
     22          1           0       -4.431464   -2.012536    0.475053
     23          1           0       -2.324365   -2.434617    1.697156
     24          1           0       -0.346546   -0.994534    1.297811
     25          1           0       -0.078739    3.182840    0.737305
 ---------------------------------------------------------------------

 SCF Done:  E(RM062X) =  -936.925287902     A.U. after    1 cycles

 The electronic state is 1-A.
 Alpha  occ. eigenvalues --  -90.20226 -19.85481 -10.74267 -10.74248 -10.71301
 Alpha  occ. eigenvalues --  -10.70976 -10.70726 -10.70431 -10.69591 -10.69319
 Alpha  occ. eigenvalues --  -10.69289 -10.69051 -10.68997 -10.68820  -8.56041
 Alpha  occ. eigenvalues --   -6.48195  -6.47896  -6.47616  -1.38159  -1.14966
 Alpha  occ. eigenvalues --   -1.12265  -1.07472  -1.00775  -1.00224  -1.00035
 Alpha  occ. eigenvalues --   -0.95937  -0.85815  -0.85050  -0.84486  -0.82754
 Alpha  occ. eigenvalues --   -0.78696  -0.76616  -0.75047  -0.70548  -0.69877
 Alpha  occ. eigenvalues --   -0.67826  -0.67570  -0.66284  -0.66045  -0.64827
 Alpha  occ. eigenvalues --   -0.64240  -0.61002  -0.60023  -0.59676  -0.57990
 Alpha  occ. eigenvalues --   -0.56495  -0.55812  -0.55153  -0.54522  -0.47745
 Alpha  occ. eigenvalues --   -0.46394  -0.46010  -0.45559
 Alpha virt. eigenvalues --   -0.19307  -0.15056  -0.13586  -0.12727  -0.12391
 Alpha virt. eigenvalues --   -0.10880  -0.10089  -0.09633  -0.08326  -0.07884
 Alpha virt. eigenvalues --   -0.07497  -0.07119  -0.06754  -0.06186  -0.05438

 Mulliken charges:
               1
     1  O   -0.240416
     2  S    0.294563
     3  C   -0.050334
     4  C   -0.497719
     5  C   -0.346438
     6  C   -0.401672
     7  C   -0.048046
     8  C    0.421086
     9  C   -0.085114
    10  C    0.043991
    11  C   -0.366616
    12  C   -0.244446
    13  C   -0.239246
    14  C   -0.075938
    15  H    0.242950
    16  H    0.263312
    17  H    0.228965
    18  H    0.271910
    19  H    0.282626
    20  H    0.240551
    21  H    0.261009
    22  H    0.239584
    23  H    0.272663
    24  H    0.188437
    25  H    0.344338
 Sum of Mulliken charges =   1.00000

 Dipole moment (field-independent basis, Debye):
    X=             -0.5811    Y=              1.5088    Z=             -0.6738  Tot=              1.7516
 Quadrupole moment (field-independent basis, Debye-Ang):
   XX=            -48.4842   YY=            -65.8876   ZZ=            -77.8975
   XY=             -2.1092   XZ=              3.5199   YZ=             -2.1800

  Exact polarizability: 197.296  -3.749 132.713  11.171  -3.890 125.897
 Approx polarizability: 221.152  -8.180 182.607  20.508  -7.105 185.387

                      1                      2                      3
                      A                      A                      A
 Frequencies --     19.9780                38.6038                57.8875
 Red. masses --      4.0908                 3.7868                 5.2803
 Frc consts  --      0.0010                 0.0033                 0.0104
 IR Inten    --      1.6115                 0.0245                 0.0954

                      4                      5                      6
                      A                      A                      A
 Frequencies --    124.1581               193.2518               196.2291
 Red. masses --      5.1547                 2.3357                 5.3012
 Frc consts  --      0.0468                 0.0514                 0.1203
 IR Inten    --      2.8579                69.5527                 6.8976

                      7                      8                      9
                      A                      A                      A
 Frequencies --    226.2396               269.0194               306.0177
 Red. masses --      3.1439                 4.2649                 2.1749
 Frc consts  --      0.0948                 0.1819                 0.1200
 IR Inten    --     18.4741                 1.0489                12.2701

                     10                     11                     12
                      A                      A                      A
 Frequencies --    355.7302               402.2383               405.4195
 Red. masses --      4.9800                 2.8545                 2.8829
 Frc consts  --      0.3713                 0.2721                 0.2792
 IR Inten    --      6.5892                 0.3959                 0.0529

                     13                     14                     15
                      A                      A                      A
 Frequencies --    424.0321               470.8177               495.1418
 Red. masses --      5.7975                 7.3995                 4.2233
 Frc consts  --      0.6142                 0.9664                 0.6101
 IR Inten    --     10.9059                13.5422                29.6995

                     16                     17                     18
                      A                      A                      A
 Frequencies --    512.7520               618.8631               619.9376
 Red. masses --      4.8087                 6.4433                 6.4794
 Frc consts  --      0.7449                 1.4540                 1.4672
 IR Inten    --     29.4794                 0.2204                 0.3807

                     19                     20                     21
                      A                      A                      A
 Frequencies --    684.7210               697.1655               705.2584
 Red. masses --      2.7279                 2.6946                 6.4269
 Frc consts  --      0.7535                 0.7716                 1.8834
 IR Inten    --     21.1486                21.9456                 1.6372

                     22                     23                     24
                      A                      A                      A
 Frequencies --    719.2490               767.5277               769.0466
 Red. masses --      6.8068                 1.3567                 1.3947
 Frc consts  --      2.0747                 0.4709                 0.4860
 IR Inten    --      9.0866                60.3425                66.6307

                     25                     26                     27
                      A                      A                      A
 Frequencies --    821.6230               859.5655               863.4736
 Red. masses --     16.2109                 1.2539                 1.2501
 Frc consts  --      6.4477                 0.5459                 0.5491
 IR Inten    --     90.5940                 0.1350                 0.3490

                     28                     29                     30
                      A                      A                      A
 Frequencies --    957.0607               959.0451              1007.9291
 Red. masses --      1.2989                 1.2841                 6.3692
 Frc consts  --      0.7010                 0.6959                 3.8124
 IR Inten    --      1.8703                 0.3005                 9.8560

                     31                     32                     33
                      A                      A                      A
 Frequencies --   1011.2773              1014.4750              1016.7812
 Red. masses --      6.3722                 1.3747                 1.3746
 Frc consts  --      3.8395                 0.8336                 0.8373
 IR Inten    --      0.3444                 0.0637                 0.4750

                     34                     35                     36
                      A                      A                      A
 Frequencies --   1043.0269              1043.1645              1050.1618
 Red. masses --      1.3211                 1.3290                 3.1118
 Frc consts  --      0.8468                 0.8521                 2.0220
 IR Inten    --      0.0003                 0.0646                 1.9170

                     37                     38                     39
                      A                      A                      A
 Frequencies --   1053.0185              1091.1821              1101.2851
 Red. masses --      2.9844                 2.5286                 2.6008
 Frc consts  --      1.9498                 1.7739                 1.8585
 IR Inten    --      0.0594                51.4711                17.0488

                     40                     41                     42
                      A                      A                      A
 Frequencies --   1120.8097              1121.8290              1172.7025
 Red. masses --      1.5202                 1.5207                 1.1229
 Frc consts  --      1.1252                 1.1276                 0.9098
 IR Inten    --      0.7963                 9.5786                84.7834

                     43                     44                     45
                      A                      A                      A
 Frequencies --   1191.6363              1193.1806              1209.9768
 Red. masses --      1.1470                 1.1372                 1.1397
 Frc consts  --      0.9596                 0.9539                 0.9831
 IR Inten    --      0.1885                 1.0908                 6.5518

                     46                     47                     48
                      A                      A                      A
 Frequencies --   1212.1421              1328.3254              1333.9162
 Red. masses --      1.1375                 4.0705                 2.8515
 Frc consts  --      0.9847                 4.2316                 2.9894
 IR Inten    --      0.2307                 2.0353                 2.2244

                     49                     50                     51
                      A                      A                      A
 Frequencies --   1351.4531              1352.0400              1490.2116
 Red. masses --      1.4275                 1.7221                 2.2541
 Frc consts  --      1.5361                 1.8547                 2.9493
 IR Inten    --     10.1849                 5.4798                13.6509

                     52                     53                     54
                      A                      A                      A
 Frequencies --   1490.9423              1512.6699              1515.9689
 Red. masses --      2.2632                 2.0503                 2.0671
 Frc consts  --      2.9641                 2.7641                 2.7989
 IR Inten    --     29.7963                 4.3849                11.3370

                     55                     56                     57
                      A                      A                      A
 Frequencies --   1643.1984              1645.2830              1651.5559
 Red. masses --      5.5395                 5.5781                 5.9381
 Frc consts  --      8.8125                 8.8965                 9.5429
 IR Inten    --     13.5978                 0.9483                 0.2983

                     58                     59                     60
                      A                      A                      A
 Frequencies --   1659.5040              3204.3497              3211.7836
 Red. masses --      6.2104                 1.0916                 1.0910
 Frc consts  --     10.0769                 6.6038                 6.6309
 IR Inten    --      1.1142                 0.6298                 0.6819

                     61                     62                     63
                      A                      A                      A
 Frequencies --   3218.4160              3221.4863              3223.9297
 Red. masses --      1.0897                 1.0891                 1.0920
 Frc consts  --      6.6503                 6.6595                 6.6875
 IR Inten    --      0.4880                 0.3165                 2.1548

                     64                     65                     66
                      A                      A                      A
 Frequencies --   3230.6578              3235.5132              3238.0815
 Red. masses --      1.0922                 1.0958                 1.0964
 Frc consts  --      6.7165                 6.7588                 6.7732
 IR Inten    --      0.6120                 1.5686                 3.1071

                     67                     68                     69
                      A                      A                      A
 Frequencies --   3239.9914              3243.4059              3808.1851
 Red. masses --      1.0992                 1.0975                 1.0680
 Frc consts  --      6.7982                 6.8026                 9.1253
 IR Inten    --      0.0749                 3.5687               307.6811

 - Thermochemistry -
 -------------------
 Temperature     0.001 Kelvin.  Pressure   1.00000 Atm.
 Atom     1 has atomic number  8 and mass  15.99491

 Molecular mass:   203.05306 amu.
 Principal axes and moments of inertia in atomic units:
                           1         2         3
     Eigenvalues --  1507.150664483.622644960.96015
           X            0.99999  -0.00300   0.00441
           Y            0.00302   0.99998  -0.00569
           Z           -0.00439   0.00570   0.99997
 This molecule is an asymmetric top.
 Rotational symmetry number  1.
 Warning -- assumption of classical behavior for rotation
           may cause significant error
 Rotational temperatures (Kelvin)      0.05747     0.01932     0.01746
 Rotational constants (GHZ):           1.19745     0.40252     0.36379
 Zero-point vibrational energy     521844.0 (Joules/Mol)
                                  124.72371 (Kcal/Mol)
 Vibrational temperatures:     28.74    55.54    83.29   178.64   278.05
          (Kelvin)            282.33   325.51   387.06   440.29   511.82
                              578.73   583.31   610.09   677.40   712.40
                              737.74   890.41   891.95   985.16  1003.07
                             1014.71  1034.84  1104.30  1106.49  1182.13
                             1236.72  1242.35  1377.00  1379.85  1450.19
                             1455.00  1459.60  1462.92  1500.68  1500.88
                             1510.95  1515.06  1569.97  1584.50  1612.60
                             1614.06  1687.26  1714.50  1716.72  1740.89
                             1744.00  1911.16  1919.21  1944.44  1945.28
                             2144.08  2145.13  2176.39  2181.14  2364.20
                             2367.20  2376.22  2387.66  4610.34  4621.04
                             4630.58  4635.00  4638.52  4648.20  4655.18
                             4658.88  4661.62  4666.54  5479.13

 Zero-point correction=                           0.198760 (Hartree/Particle)
 Thermal correction to Energy=                    0.198760
 Thermal correction to Enthalpy=                  0.198760
 Thermal correction to Gibbs Free Energy=         0.198760
 Sum of electronic and zero-point Energies=           -936.726528
 Sum of electronic and thermal Energies=              -936.726528
 Sum of electronic and thermal Enthalpies=            -936.726528
 Sum of electronic and thermal Free Energies=         -936.726528

                     E (Thermal)             CV                S
                      KCal/Mol        Cal/Mol-Kelvin    Cal/Mol-Kelvin
 Total                  124.724              5.962            -26.485
 Electronic               0.000              0.000              0.000
 Translational            0.000              2.981            -20.794
 Rotational               0.000              2.981             -5.691
 Vibrational            124.724              0.000              0.000

 Optimization completed.
    -- Stationary point found.
 Normal termination of Gaussian 16 at Sun Oct 13 23:34:57 2019.
