 Gaussian 16, Revision A.03,
 Gaussian 16:  ES64L-G16RevA.03 25-Dec-2016

 -------------------------------------------------------------------
 #P opt freq m062x/6-311++g(d,p) geom=connectivity temperature=0.001
 -------------------------------------------------------------------

 -------------------
 Title Card Required
 -------------------
 Symbolic Z-matrix:
 Charge =  0 Multiplicity = 1

 SCF Done:  E(RM062X) =  -744.839319151     A.U. after   17 cycles
 SCF Done:  E(RM062X) =  -744.850631683     A.U. after   16 cycles
 SCF Done:  E(RM062X) =  -744.853646917     A.U. after   17 cycles
 SCF Done:  E(RM062X) =  -744.854866680     A.U. after   17 cycles
 SCF Done:  E(RM062X) =  -744.856292060     A.U. after   17 cycles
 SCF Done:  E(RM062X) =  -744.856562021     A.U. after   14 cycles
 SCF Done:  E(RM062X) =  -744.856611786     A.U. after   13 cycles
 SCF Done:  E(RM062X) =  -744.856613928     A.U. after   12 cycles
 SCF Done:  E(RM062X) =  -744.856614712     A.U. after   12 cycles
 SCF Done:  E(RM062X) =  -744.856614812     A.U. after   10 cycles
 Optimization completed.
    -- Stationary point found.
 Normal termination of Gaussian 16 at Sun Oct 13 23:16:38 2019.

 ----------------------------------------------------------------------
 #P Geom=AllCheck Guess=TCheck SCRF=Check GenChk RM062X/6-311++G(d,p) F
 req
 ----------------------------------------------------------------------

 Structure from the checkpoint file:  "33.chk"
 -------------------
 Title Card Required
 -------------------
 Charge =  0 Multiplicity = 1

                         Standard orientation:
 ---------------------------------------------------------------------
 Center     Atomic      Atomic             Coordinates (Angstroms)
 Number     Number       Type             X           Y           Z
 ---------------------------------------------------------------------
      1          8           0        2.178626    1.287820   -0.270986
      2         16           0        1.671593   -0.115374   -0.471487
      3          6           0        2.058758   -1.007374    1.063955
      4          6           0       -0.117535   -0.054250   -0.207109
      5          6           0       -0.895318   -1.189619   -0.406801
      6          6           0       -2.268746   -1.107890   -0.210938
      7          6           0       -2.846751    0.101443    0.169842
      8          6           0       -2.055114    1.230693    0.350802
      9          6           0       -0.677555    1.159713    0.159306
     10          1           0        3.142168   -1.113779    1.100774
     11          1           0        1.704060   -0.402787    1.898445
     12          1           0        1.577535   -1.985184    1.049212
     13          1           0       -0.439187   -2.122954   -0.721940
     14          1           0       -2.888470   -1.983487   -0.362269
     15          1           0       -3.918342    0.163160    0.316897
     16          1           0       -2.509952    2.171286    0.637729
     17          1           0       -0.028742    2.020871    0.278491
 ---------------------------------------------------------------------

 SCF Done:  E(RM062X) =  -744.856614812     A.U. after    1 cycles

 The electronic state is 1-A.
 Alpha  occ. eigenvalues --  -90.00442 -19.58339 -10.58125 -10.57228 -10.56935
 Alpha  occ. eigenvalues --  -10.56379 -10.56136 -10.56061 -10.55978  -8.36096
 Alpha  occ. eigenvalues --   -6.28162  -6.28083  -6.27736  -1.13607  -0.98550
 Alpha  occ. eigenvalues --   -0.89636  -0.86446  -0.84748  -0.74535  -0.71097
 Alpha  occ. eigenvalues --   -0.67495  -0.61245  -0.55108  -0.54509  -0.52828
 Alpha  occ. eigenvalues --   -0.52662  -0.50929  -0.50312  -0.48503  -0.45719
 Alpha  occ. eigenvalues --   -0.43962  -0.42842  -0.42140  -0.34317  -0.33400
 Alpha  occ. eigenvalues --   -0.32704  -0.29539
 Alpha virt. eigenvalues --   -0.00966  -0.00728   0.00100   0.00425   0.00952
 Alpha virt. eigenvalues --    0.02052   0.02837   0.03009   0.04320   0.04567
 Alpha virt. eigenvalues --    0.05778   0.06147   0.06686   0.07391   0.08300

 Mulliken charges:
               1
     1  O   -0.465012
     2  S    0.685810
     3  C   -0.697075
     4  C   -0.249065
     5  C   -0.582283
     6  C   -0.311404
     7  C   -0.221361
     8  C   -0.295063
     9  C    0.478011
    10  H    0.205667
    11  H    0.207897
    12  H    0.149123
    13  H    0.188571
    14  H    0.213874
    15  H    0.191829
    16  H    0.218105
    17  H    0.282376
 Sum of Mulliken charges =  -0.00000

 Dipole moment (field-independent basis, Debye):
    X=             -2.5772    Y=             -3.3580    Z=              1.2463  Tot=              4.4126
 Quadrupole moment (field-independent basis, Debye-Ang):
   XX=            -59.4467   YY=            -59.0732   ZZ=            -62.9530
   XY=             -8.4699   XZ=              2.2450   YZ=              1.7805

  Exact polarizability: 129.767  -0.565 103.780  -0.665   3.458  69.776
 Approx polarizability: 149.925   3.960 145.800  -4.288   7.599  90.453

                      1                      2                      3
                      A                      A                      A
 Frequencies --     59.7433               124.8458               187.9669
 Red. masses --      3.9160                 3.6418                 2.7366
 Frc consts  --      0.0082                 0.0334                 0.0570
 IR Inten    --      4.0620                 1.2776                 6.5856

                      4                      5                      6
                      A                      A                      A
 Frequencies --    225.0383               269.1614               321.2285
 Red. masses --      1.2809                 3.7182                 5.3467
 Frc consts  --      0.0382                 0.1587                 0.3251
 IR Inten    --      1.4135                 1.0078                 5.3610

                      7                      8                      9
                      A                      A                      A
 Frequencies --    358.7975               414.3308               461.5342
 Red. masses --      5.1384                 2.8949                 7.1412
 Frc consts  --      0.3897                 0.2928                 0.8962
 IR Inten    --      5.9482                 0.0782                13.5730

                     10                     11                     12
                      A                      A                      A
 Frequencies --    509.7814               624.9793               690.9075
 Red. masses --      3.5827                 6.4056                 5.0996
 Frc consts  --      0.5486                 1.4742                 1.4343
 IR Inten    --     23.0422                 0.1122                 7.8142

                     13                     14                     15
                      A                      A                      A
 Frequencies --    709.7683               712.3880               767.2793
 Red. masses --      5.7526                 2.4308                 1.4678
 Frc consts  --      1.7074                 0.7268                 0.5091
 IR Inten    --      2.3383                33.5001                52.8926

                     16                     17                     18
                      A                      A                      A
 Frequencies --    875.0459               950.5725               963.9855
 Red. masses --      1.2448                 1.3155                 1.4379
 Frc consts  --      0.5616                 0.7004                 0.7872
 IR Inten    --      0.3381                 2.3149                 7.9320

                     19                     20                     21
                      A                      A                      A
 Frequencies --    981.2631              1012.5477              1014.2812
 Red. masses --      1.3360                 1.4812                 4.5355
 Frc consts  --      0.7579                 0.8948                 2.7491
 IR Inten    --     26.5808                 0.3259                 3.8106

                     22                     23                     24
                      A                      A                      A
 Frequencies --   1029.3296              1053.9469              1066.3379
 Red. masses --      1.3018                 2.5833                 6.9045
 Frc consts  --      0.8126                 1.6907                 4.6257
 IR Inten    --      0.2166                 6.1472               124.5470

                     25                     26                     27
                      A                      A                      A
 Frequencies --   1108.2130              1111.8667              1178.8413
 Red. masses --      1.5603                 3.0039                 1.1540
 Frc consts  --      1.1290                 2.1879                 0.9448
 IR Inten    --      3.6480                24.8075                 0.0715

                     28                     29                     30
                      A                      A                      A
 Frequencies --   1198.3947              1322.6729              1339.5004
 Red. masses --      1.1474                 2.7225                 1.4077
 Frc consts  --      0.9709                 2.8062                 1.4882
 IR Inten    --      0.7815                 0.1097                 5.5584

                     31                     32                     33
                      A                      A                      A
 Frequencies --   1342.9528              1447.9809              1465.0676
 Red. masses --      1.4383                 1.0483                 1.0519
 Frc consts  --      1.5283                 1.2950                 1.3303
 IR Inten    --      3.9977                 7.8769                15.6246

                     34                     35                     36
                      A                      A                      A
 Frequencies --   1485.3825              1518.5044              1658.0205
 Red. masses --      2.2758                 2.1641                 5.8474
 Frc consts  --      2.9584                 2.9401                 9.4710
 IR Inten    --     12.7086                10.0156                 3.3119

                     37                     38                     39
                      A                      A                      A
 Frequencies --   1660.6457              3074.6067              3184.5234
 Red. masses --      6.2720                 1.0283                 1.1077
 Frc consts  --     10.1909                 5.7271                 6.6185
 IR Inten    --      0.2856                 2.8919                 0.3319

                     40                     41                     42
                      A                      A                      A
 Frequencies --   3185.7424              3189.5077              3203.9188
 Red. masses --      1.1059                 1.0898                 1.0873
 Frc consts  --      6.6130                 6.5322                 6.5761
 IR Inten    --      1.4882                 1.4820                 3.4607

                     43                     44                     45
                      A                      A                      A
 Frequencies --   3211.1263              3219.2249              3228.7001
 Red. masses --      1.0908                 1.0948                 1.0988
 Frc consts  --      6.6271                 6.6845                 6.7485
 IR Inten    --      4.8464                 5.0508                11.4649

 - Thermochemistry -
 -------------------
 Temperature     0.001 Kelvin.  Pressure   1.00000 Atm.
 Atom     1 has atomic number  8 and mass  15.99491

 Molecular mass:   140.02959 amu.
 Principal axes and moments of inertia in atomic units:
                           1         2         3
     Eigenvalues --   578.226161860.813732196.09374
           X            0.99972  -0.01856   0.01477
           Y            0.01856   0.99983  -0.00020
           Z           -0.01476   0.00047   0.99989
 This molecule is an asymmetric top.
 Rotational symmetry number  1.
 Warning -- assumption of classical behavior for rotation
           may cause significant error
 Rotational temperatures (Kelvin)      0.14979     0.04655     0.03944
 Rotational constants (GHZ):           3.12117     0.96987     0.82180
 Zero-point vibrational energy     351226.3 (Joules/Mol)
                                   83.94510 (Kcal/Mol)
 Vibrational temperatures:     85.96   179.63   270.44   323.78   387.26
          (Kelvin)            462.18   516.23   596.13   664.04   733.46
                              899.21   994.06  1021.20  1024.97  1103.94
                             1259.00  1367.66  1386.96  1411.82  1456.83
                             1459.32  1480.98  1516.39  1534.22  1594.47
                             1599.73  1696.09  1724.22  1903.03  1927.24
                             1932.21  2083.32  2107.91  2137.13  2184.79
                             2385.52  2389.30  4423.67  4581.82  4583.57
                             4588.99  4609.72  4620.09  4631.75  4645.38

 Zero-point correction=                           0.133775 (Hartree/Particle)
 Thermal correction to Energy=                    0.133775
 Thermal correction to Enthalpy=                  0.133775
 Thermal correction to Gibbs Free Energy=         0.133775
 Sum of electronic and zero-point Energies=           -744.722840
 Sum of electronic and thermal Energies=              -744.722840
 Sum of electronic and thermal Enthalpies=            -744.722840
 Sum of electronic and thermal Free Energies=         -744.722840

                     E (Thermal)             CV                S
                      KCal/Mol        Cal/Mol-Kelvin    Cal/Mol-Kelvin
 Total                   83.945              5.962            -30.228
 Electronic               0.000              0.000              0.000
 Translational            0.000              2.981            -21.902
 Rotational               0.000              2.981             -8.326
 Vibrational             83.945              0.000              0.000

 Optimization completed.
    -- Stationary point found.
 Normal termination of Gaussian 16 at Sun Oct 13 23:18:18 2019.
