 Gaussian 16, Revision A.03,
 Gaussian 16:  ES64L-G16RevA.03 25-Dec-2016

 -------------------------------------------------------------------
 #P opt freq m062x/6-311++g(d,p) geom=connectivity temperature=0.001
 -------------------------------------------------------------------

 -------------------
 Title Card Required
 -------------------
 Symbolic Z-matrix:
 Charge =  1 Multiplicity = 1

 SCF Done:  E(RM062X) =  -745.205833625     A.U. after   15 cycles
 SCF Done:  E(RM062X) =  -745.215883900     A.U. after   14 cycles
 SCF Done:  E(RM062X) =  -745.216986537     A.U. after   13 cycles
 SCF Done:  E(RM062X) =  -745.217149134     A.U. after   13 cycles
 SCF Done:  E(RM062X) =  -745.217166921     A.U. after   12 cycles
 SCF Done:  E(RM062X) =  -745.217170937     A.U. after   11 cycles
 SCF Done:  E(RM062X) =  -745.217172787     A.U. after   11 cycles
 SCF Done:  E(RM062X) =  -745.217173390     A.U. after   10 cycles
 SCF Done:  E(RM062X) =  -745.217173665     A.U. after   10 cycles
 SCF Done:  E(RM062X) =  -745.217173835     A.U. after   11 cycles
 SCF Done:  E(RM062X) =  -745.217173882     A.U. after   10 cycles
 Optimization completed.
    -- Stationary point found.
 Normal termination of Gaussian 16 at Sun Oct 13 23:16:45 2019.

 ----------------------------------------------------------------------
 #P Geom=AllCheck Guess=TCheck SCRF=Check GenChk RM062X/6-311++G(d,p) F
 req
 ----------------------------------------------------------------------

 Structure from the checkpoint file:  "33_p.chk"
 -------------------
 Title Card Required
 -------------------
 Charge =  1 Multiplicity = 1

                         Standard orientation:
 ---------------------------------------------------------------------
 Center     Atomic      Atomic             Coordinates (Angstroms)
 Number     Number       Type             X           Y           Z
 ---------------------------------------------------------------------
      1          8           0        2.159713    0.601388   -1.123934
      2         16           0        1.555921   -0.544479   -0.133709
      3          6           0        2.183356    0.165073    1.388113
      4          6           0       -0.170985   -0.188537   -0.073147
      5          6           0       -1.029341   -1.285323   -0.098157
      6          6           0       -2.397108   -1.048020   -0.014584
      7          6           0       -2.870725    0.256410    0.069949
      8          6           0       -1.991548    1.341161    0.072305
      9          6           0       -0.623932    1.128593    0.007413
     10          1           0        3.265395    0.043968    1.382024
     11          1           0        1.895589    1.215221    1.419148
     12          1           0        1.730372   -0.395487    2.205896
     13          1           0       -0.645939   -2.296092   -0.181531
     14          1           0       -3.087551   -1.881555   -0.026917
     15          1           0       -3.937620    0.435251    0.125712
     16          1           0       -2.375103    2.352282    0.123235
     17          1           0        0.068486    1.962480   -0.014412
     18          1           0        2.315620    0.248349   -2.013686
 ---------------------------------------------------------------------

 SCF Done:  E(RM062X) =  -745.217173882     A.U. after    1 cycles

 The electronic state is 1-A.
 Alpha  occ. eigenvalues --  -90.21695 -19.86826 -10.75723 -10.75471 -10.72412
 Alpha  occ. eigenvalues --  -10.72161 -10.70513 -10.70409 -10.70302  -8.57538
 Alpha  occ. eigenvalues --   -6.49689  -6.49386  -6.49107  -1.39567  -1.15598
 Alpha  occ. eigenvalues --   -1.10387  -1.01777  -1.01345  -0.94458  -0.86619
 Alpha  occ. eigenvalues --   -0.85389  -0.80570  -0.77118  -0.72320  -0.71911
 Alpha  occ. eigenvalues --   -0.69322  -0.68030  -0.67807  -0.66451  -0.65771
 Alpha  occ. eigenvalues --   -0.61724  -0.60955  -0.58637  -0.56949  -0.55546
 Alpha  occ. eigenvalues --   -0.48135  -0.47396
 Alpha virt. eigenvalues --   -0.20077  -0.14488  -0.14132  -0.12525  -0.12287
 Alpha virt. eigenvalues --   -0.10334  -0.09479  -0.08409  -0.08327  -0.08012
 Alpha virt. eigenvalues --   -0.07350  -0.06578  -0.06006  -0.05501  -0.04912

 Mulliken charges:
               1
     1  O   -0.209412
     2  S    0.289588
     3  C   -0.610866
     4  C   -0.576826
     5  C   -0.367906
     6  C   -0.277925
     7  C   -0.154797
     8  C   -0.191709
     9  C    0.757420
    10  H    0.255636
    11  H    0.221565
    12  H    0.237129
    13  H    0.246067
    14  H    0.262999
    15  H    0.243643
    16  H    0.256830
    17  H    0.268162
    18  H    0.350402
 Sum of Mulliken charges =   1.00000

 Dipole moment (field-independent basis, Debye):
    X=              2.6155    Y=             -0.8945    Z=              0.2041  Tot=              2.7717
 Quadrupole moment (field-independent basis, Debye-Ang):
   XX=            -30.2058   YY=            -49.9214   ZZ=            -51.3582
   XY=             -1.9896   XZ=             -0.2438   YZ=              1.3827

  Exact polarizability: 129.361   0.954  92.679   0.371   0.961  68.231
 Approx polarizability: 151.905   1.998 130.948  -2.595   1.098  88.219

                      1                      2                      3
                      A                      A                      A
 Frequencies --     55.8603               112.8289               177.2807
 Red. masses --      3.8688                 3.5736                 3.5931
 Frc consts  --      0.0071                 0.0268                 0.0665
 IR Inten    --      0.8276                 1.3134                 1.1196

                      4                      5                      6
                      A                      A                      A
 Frequencies --    212.1197               255.6628               284.5265
 Red. masses --      1.1074                 2.2575                 3.0866
 Frc consts  --      0.0294                 0.0869                 0.1472
 IR Inten    --      0.4889                53.8571                42.9549

                      7                      8                      9
                      A                      A                      A
 Frequencies --    316.4049               376.8415               405.1603
 Red. masses --      1.8624                 3.1214                 2.8931
 Frc consts  --      0.1099                 0.2612                 0.2798
 IR Inten    --     49.1398                 6.7771                 1.9427

                     10                     11                     12
                      A                      A                      A
 Frequencies --    445.6863               483.7629               618.9586
 Red. masses --      6.0329                 4.1694                 6.4489
 Frc consts  --      0.7060                 0.5749                 1.4557
 IR Inten    --     30.0462                17.1229                 0.2834

                     13                     14                     15
                      A                      A                      A
 Frequencies --    686.4297               701.7174               728.1898
 Red. masses --      2.9705                 5.7552                 5.7406
 Frc consts  --      0.8247                 1.6697                 1.7935
 IR Inten    --     16.7216                 0.1132                 8.5421

                     16                     17                     18
                      A                      A                      A
 Frequencies --    768.4855               829.1768               862.9289
 Red. masses --      1.3442                12.1199                 1.2637
 Frc consts  --      0.4677                 4.9096                 0.5544
 IR Inten    --     60.5486                94.5664                 0.1934

                     19                     20                     21
                      A                      A                      A
 Frequencies --    958.6941               999.6436              1010.1554
 Red. masses --      1.2765                 1.2865                 4.9695
 Frc consts  --      0.6913                 0.7575                 2.9877
 IR Inten    --      0.3338                 2.2999                 8.8601

                     22                     23                     24
                      A                      A                      A
 Frequencies --   1016.0884              1018.7052              1046.2495
 Red. masses --      1.3662                 1.3697                 1.3297
 Frc consts  --      0.8310                 0.8375                 0.8576
 IR Inten    --     18.4079                 8.2258                 0.0985

                     25                     26                     27
                      A                      A                      A
 Frequencies --   1050.5690              1098.0264              1121.6566
 Red. masses --      2.9036                 2.6518                 1.5232
 Frc consts  --      1.8881                 1.8837                 1.1291
 IR Inten    --      1.1247                37.9989                 8.8385

                     28                     29                     30
                      A                      A                      A
 Frequencies --   1182.8284              1194.8665              1210.8786
 Red. masses --      1.1384                 1.1396                 1.1442
 Frc consts  --      0.9384                 0.9586                 0.9884
 IR Inten    --     96.3137                 0.2656                 0.8378

                     31                     32                     33
                      A                      A                      A
 Frequencies --   1335.3754              1352.4157              1370.9841
 Red. masses --      2.8147                 1.7198                 1.1715
 Frc consts  --      2.9572                 1.8533                 1.2974
 IR Inten    --      2.3530                 7.0259                 8.3694

                     34                     35                     36
                      A                      A                      A
 Frequencies --   1443.6186              1456.5598              1491.3917
 Red. masses --      1.0460                 1.0468                 2.2448
 Frc consts  --      1.2844                 1.3084                 2.9418
 IR Inten    --     10.3470                23.6111                22.8735

                     37                     38                     39
                      A                      A                      A
 Frequencies --   1514.3012              1644.3722              1653.0725
 Red. masses --      2.0454                 5.4864                 5.9720
 Frc consts  --      2.7635                 8.7405                 9.6151
 IR Inten    --      4.1919                10.4031                 0.5304

                     40                     41                     42
                      A                      A                      A
 Frequencies --   3083.7509              3194.5137              3202.7954
 Red. masses --      1.0275                 1.1081                 1.1095
 Frc consts  --      5.7572                 6.6628                 6.7056
 IR Inten    --      8.7558                 7.1299                 7.8829

                     43                     44                     45
                      A                      A                      A
 Frequencies --   3211.3785              3213.4595              3223.4008
 Red. masses --      1.0910                 1.0912                 1.0915
 Frc consts  --      6.6289                 6.6389                 6.6822
 IR Inten    --      0.5628                 2.4632                 0.2738

                     46                     47                     48
                      A                      A                      A
 Frequencies --   3234.3753              3240.0243              3797.0993
 Red. masses --      1.0954                 1.0994                 1.0679
 Frc consts  --      6.7517                 6.7999                 9.0717
 IR Inten    --      2.1091                 0.6487               278.6015

 - Thermochemistry -
 -------------------
 Temperature     0.001 Kelvin.  Pressure   1.00000 Atm.
 Atom     1 has atomic number  8 and mass  15.99491

 Molecular mass:   141.03741 amu.
 Principal axes and moments of inertia in atomic units:
                           1         2         3
     Eigenvalues --   585.522531977.134792155.22756
           X            0.99990   0.00584   0.01308
           Y           -0.00617   0.99967   0.02512
           Z           -0.01293  -0.02519   0.99960
 This molecule is an asymmetric top.
 Rotational symmetry number  1.
 Warning -- assumption of classical behavior for rotation
           may cause significant error
 Rotational temperatures (Kelvin)      0.14793     0.04381     0.04019
 Rotational constants (GHZ):           3.08227     0.91281     0.83738
 Zero-point vibrational energy     382166.6 (Joules/Mol)
                                   91.34002 (Kcal/Mol)
 Vibrational temperatures:     80.37   162.34   255.07   305.19   367.84
          (Kelvin)            409.37   455.24   542.19   582.94   641.24
                              696.03   890.54   987.62  1009.61  1047.70
                             1105.68  1193.00  1241.56  1379.35  1438.26
                             1453.39  1461.92  1465.69  1505.32  1511.53
                             1579.82  1613.81  1701.83  1719.15  1742.18
                             1921.31  1945.82  1972.54  2077.05  2095.66
                             2145.78  2178.74  2365.88  2378.40  4436.83
                             4596.19  4608.11  4620.46  4623.45  4637.75
                             4653.54  4661.67  5463.18

 Zero-point correction=                           0.145560 (Hartree/Particle)
 Thermal correction to Energy=                    0.145560
 Thermal correction to Enthalpy=                  0.145560
 Thermal correction to Gibbs Free Energy=         0.145560
 Sum of electronic and zero-point Energies=           -745.071614
 Sum of electronic and thermal Energies=              -745.071614
 Sum of electronic and thermal Enthalpies=            -745.071614
 Sum of electronic and thermal Free Energies=         -745.071614

                     E (Thermal)             CV                S
                      KCal/Mol        Cal/Mol-Kelvin    Cal/Mol-Kelvin
 Total                   91.340              5.962            -30.153
 Electronic               0.000              0.000              0.000
 Translational            0.000              2.981            -21.881
 Rotational               0.000              2.981             -8.272
 Vibrational             91.340              0.000              0.000

 Optimization completed.
    -- Stationary point found.
 Normal termination of Gaussian 16 at Sun Oct 13 23:18:34 2019.
