 Gaussian 16, Revision A.03,
 Gaussian 16:  ES64L-G16RevA.03 25-Dec-2016

 -------------------------------------------------------------------
 #P opt freq m062x/6-311++g(d,p) geom=connectivity temperature=0.001
 -------------------------------------------------------------------

 -------------------
 Title Card Required
 -------------------
 Symbolic Z-matrix:
 Charge =  0 Multiplicity = 1

 SCF Done:  E(RM062X) =  -782.821938467     A.U. after   17 cycles
 SCF Done:  E(RM062X) =  -782.874275871     A.U. after   16 cycles
 SCF Done:  E(RM062X) =  -782.913852354     A.U. after   16 cycles
 SCF Done:  E(RM062X) =  -782.921552440     A.U. after   17 cycles
 SCF Done:  E(RM062X) =  -782.922689930     A.U. after   17 cycles
 SCF Done:  E(RM062X) =  -782.922995041     A.U. after   17 cycles
 SCF Done:  E(RM062X) =  -782.923062080     A.U. after   13 cycles
 SCF Done:  E(RM062X) =  -782.923088207     A.U. after   14 cycles
 SCF Done:  E(RM062X) =  -782.923096632     A.U. after   12 cycles
 SCF Done:  E(RM062X) =  -782.923105171     A.U. after   13 cycles
 SCF Done:  E(RM062X) =  -782.923108347     A.U. after   14 cycles
 SCF Done:  E(RM062X) =  -782.923108678     A.U. after   11 cycles
 Optimization completed.
    -- Stationary point found.
 Normal termination of Gaussian 16 at Sun Oct 13 23:18:16 2019.

 ----------------------------------------------------------------------
 #P Geom=AllCheck Guess=TCheck SCRF=Check GenChk RM062X/6-311++G(d,p) F
 req
 ----------------------------------------------------------------------

 Structure from the checkpoint file:  "34.chk"
 -------------------
 Title Card Required
 -------------------
 Charge =  0 Multiplicity = 1

                         Standard orientation:
 ---------------------------------------------------------------------
 Center     Atomic      Atomic             Coordinates (Angstroms)
 Number     Number       Type             X           Y           Z
 ---------------------------------------------------------------------
      1          8           0       -1.973096   -1.655309   -0.042634
      2         16           0       -1.523334   -0.355797   -0.658830
      3          6           0       -2.140875    0.935841    0.440488
      4          6           0       -1.435664    1.850131    1.087836
      5          6           0        0.237806   -0.186158   -0.313816
      6          6           0        0.993018    0.750431   -1.009592
      7          6           0        2.350771    0.860911   -0.728395
      8          6           0        2.931869    0.031981    0.228238
      9          6           0        2.162248   -0.911716    0.903082
     10          6           0        0.802081   -1.027217    0.633627
     11          1           0       -3.221596    0.863512    0.511167
     12          1           0       -1.940678    2.577260    1.713858
     13          1           0       -0.355218    1.907546    1.024844
     14          1           0        0.527919    1.381847   -1.759701
     15          1           0        2.954926    1.586004   -1.260141
     16          1           0        3.991141    0.115494    0.440036
     17          1           0        2.622530   -1.561773    1.637469
     18          1           0        0.171572   -1.759887    1.126005
 ---------------------------------------------------------------------

 SCF Done:  E(RM062X) =  -782.923108678     A.U. after    2 cycles

 The electronic state is 1-A.
 Alpha  occ. eigenvalues --  -90.00727 -19.58361 -10.58357 -10.58268 -10.57168
 Alpha  occ. eigenvalues --  -10.56703 -10.56639 -10.56476 -10.56392 -10.56319
 Alpha  occ. eigenvalues --   -8.36363  -6.28421  -6.28370  -6.28000  -1.13597
 Alpha  occ. eigenvalues --   -0.98887  -0.91561  -0.87217  -0.86730  -0.78895
 Alpha  occ. eigenvalues --   -0.71371  -0.70557  -0.65863  -0.60889  -0.56583
 Alpha  occ. eigenvalues --   -0.55265  -0.54602  -0.53051  -0.51220  -0.49869
 Alpha  occ. eigenvalues --   -0.46930  -0.45989  -0.45652  -0.43208  -0.42534
 Alpha  occ. eigenvalues --   -0.36842  -0.33826  -0.33723  -0.32932  -0.29546
 Alpha virt. eigenvalues --   -0.01699  -0.00832  -0.00141   0.00093   0.00408
 Alpha virt. eigenvalues --    0.00953   0.02027   0.02370   0.03248   0.03909
 Alpha virt. eigenvalues --    0.04480   0.05727   0.06444   0.07266   0.07340

 Mulliken charges:
               1
     1  O   -0.474302
     2  S    0.488632
     3  C   -0.282545
     4  C   -0.374626
     5  C   -0.026707
     6  C   -0.847767
     7  C   -0.281150
     8  C   -0.343789
     9  C   -0.249125
    10  C    0.667971
    11  H    0.271605
    12  H    0.194063
    13  H    0.129232
    14  H    0.201595
    15  H    0.226683
    16  H    0.192473
    17  H    0.226316
    18  H    0.281439
 Sum of Mulliken charges =   0.00000

 Dipole moment (field-independent basis, Debye):
    X=              2.6712    Y=              3.8893    Z=              0.3904  Tot=              4.7344
 Quadrupole moment (field-independent basis, Debye-Ang):
   XX=            -61.9008   YY=            -69.3431   ZZ=            -65.1390
   XY=             -7.9533   XZ=              0.1787   YZ=             -1.6501

  Exact polarizability: 136.723   4.348 107.076   3.658  -5.882  89.827
 Approx polarizability: 162.163  14.890 146.331   9.148 -14.200 122.109

                      1                      2                      3
                      A                      A                      A
 Frequencies --     47.7664                80.2153               100.5147
 Red. masses --      4.1880                 2.5051                 3.6994
 Frc consts  --      0.0056                 0.0095                 0.0220
 IR Inten    --      1.8730                 1.2320                 0.8105

                      4                      5                      6
                      A                      A                      A
 Frequencies --    184.3492               241.1561               290.6515
 Red. masses --      5.8046                 4.3880                 3.8311
 Frc consts  --      0.1162                 0.1504                 0.1907
 IR Inten    --      7.3079                 2.7044                 6.4593

                      7                      8                      9
                      A                      A                      A
 Frequencies --    335.9518               408.8038               416.7053
 Red. masses --      4.9796                 3.1168                 3.4098
 Frc consts  --      0.3311                 0.3069                 0.3488
 IR Inten    --      3.0643                 0.1101                 0.6662

                     10                     11                     12
                      A                      A                      A
 Frequencies --    462.4369               514.7399               623.4986
 Red. masses --      6.3178                 3.4245                 5.5391
 Frc consts  --      0.7960                 0.5346                 1.2687
 IR Inten    --     13.5918                19.1921                 1.8301

                     13                     14                     15
                      A                      A                      A
 Frequencies --    630.8167               688.1370               710.9453
 Red. masses --      2.7705                 3.0554                 2.3525
 Frc consts  --      0.6495                 0.8524                 0.7006
 IR Inten    --     15.5304                20.4825                37.8866

                     16                     17                     18
                      A                      A                      A
 Frequencies --    714.4892               771.0944               878.1174
 Red. masses --      5.4791                 1.5028                 1.2457
 Frc consts  --      1.6480                 0.5265                 0.5659
 IR Inten    --      9.5132                46.1690                 0.1595

                     19                     20                     21
                      A                      A                      A
 Frequencies --    954.5678               988.6040              1003.1877
 Red. masses --      1.3313                 1.3305                 1.1076
 Frc consts  --      0.7147                 0.7662                 0.6568
 IR Inten    --      1.6388                27.6410                19.5593

                     22                     23                     24
                      A                      A                      A
 Frequencies --   1013.4173              1013.9096              1029.4544
 Red. masses --      1.7355                 3.1595                 1.3020
 Frc consts  --      1.0501                 1.9136                 0.8130
 IR Inten    --      1.3316                 6.2799                 0.1362

                     25                     26                     27
                      A                      A                      A
 Frequencies --   1038.3705              1052.6580              1054.2703
 Red. masses --      1.3190                 3.5078                 4.8602
 Frc consts  --      0.8379                 2.2901                 3.1828
 IR Inten    --      2.6200                47.3137                91.8188

                     28                     29                     30
                      A                      A                      A
 Frequencies --   1103.9817              1111.9309              1179.0110
 Red. masses --      1.6715                 2.5090                 1.1552
 Frc consts  --      1.2003                 1.8277                 0.9461
 IR Inten    --     10.9137                11.7624                 0.1132

                     31                     32                     33
                      A                      A                      A
 Frequencies --   1196.5695              1289.8882              1323.0697
 Red. masses --      1.1482                 1.2465                 2.7451
 Frc consts  --      0.9686                 1.2219                 2.8312
 IR Inten    --      1.0843                13.4811                 0.0968

                     34                     35                     36
                      A                      A                      A
 Frequencies --   1340.2172              1430.2807              1485.2628
 Red. masses --      1.7559                 1.1701                 2.2658
 Frc consts  --      1.8582                 1.4103                 2.9450
 IR Inten    --      3.7403                11.5304                13.5423

                     37                     38                     39
                      A                      A                      A
 Frequencies --   1517.7029              1657.4076              1659.5027
 Red. masses --      2.1761                 5.8412                 6.2969
 Frc consts  --      2.9533                 9.4538                10.2172
 IR Inten    --      7.0466                 1.2616                 0.2021

                     40                     41                     42
                      A                      A                      A
 Frequencies --   1691.6337              3167.6218              3195.5607
 Red. masses --      4.6521                 1.0577                 1.0890
 Frc consts  --      7.8435                 6.2526                 6.5518
 IR Inten    --      3.6029                 2.0038                 0.3791

                     43                     44                     45
                      A                      A                      A
 Frequencies --   3201.1275              3204.6995              3211.6620
 Red. masses --      1.0961                 1.0879                 1.0912
 Frc consts  --      6.6177                 6.5828                 6.6316
 IR Inten    --      1.4082                 3.8347                 3.4840

                     46                     47                     48
                      A                      A                      A
 Frequencies --   3220.0640              3229.1408              3258.9592
 Red. masses --      1.0949                 1.0988                 1.1165
 Frc consts  --      6.6891                 6.7507                 6.9865
 IR Inten    --      4.2291                10.2879                 0.2407

 - Thermochemistry -
 -------------------
 Temperature     0.001 Kelvin.  Pressure   1.00000 Atm.
 Atom     1 has atomic number  8 and mass  15.99491

 Molecular mass:   152.02959 amu.
 Principal axes and moments of inertia in atomic units:
                           1         2         3
     Eigenvalues --   848.348312096.089172383.97373
           X            0.99978  -0.01953  -0.00796
           Y            0.01934   0.99953  -0.02373
           Z            0.00842   0.02357   0.99969
 This molecule is an asymmetric top.
 Rotational symmetry number  1.
 Warning -- assumption of classical behavior for rotation
           may cause significant error
 Rotational temperatures (Kelvin)      0.10210     0.04132     0.03633
 Rotational constants (GHZ):           2.12736     0.86100     0.75703
 Zero-point vibrational energy     364407.2 (Joules/Mol)
                                   87.09541 (Kcal/Mol)
 Vibrational temperatures:     68.73   115.41   144.62   265.24   346.97
          (Kelvin)            418.18   483.36   588.18   599.55   665.34
                              740.60   897.08   907.60   990.08  1022.89
                             1027.99  1109.43  1263.42  1373.41  1422.38
                             1443.36  1458.08  1458.79  1481.16  1493.98
                             1514.54  1516.86  1588.38  1599.82  1696.33
                             1721.60  1855.86  1903.60  1928.27  2057.85
                             2136.96  2183.64  2384.64  2387.65  2433.88
                             4557.50  4597.70  4605.71  4610.85  4620.87
                             4632.95  4646.01  4688.92

 Zero-point correction=                           0.138795 (Hartree/Particle)
 Thermal correction to Energy=                    0.138795
 Thermal correction to Enthalpy=                  0.138795
 Thermal correction to Gibbs Free Energy=         0.138795
 Sum of electronic and zero-point Energies=           -782.784313
 Sum of electronic and thermal Energies=              -782.784313
 Sum of electronic and thermal Enthalpies=            -782.784313
 Sum of electronic and thermal Free Energies=         -782.784313

                     E (Thermal)             CV                S
                      KCal/Mol        Cal/Mol-Kelvin    Cal/Mol-Kelvin
 Total                   87.095              5.962            -29.402
 Electronic               0.000              0.000              0.000
 Translational            0.000              2.981            -21.657
 Rotational               0.000              2.981             -7.745
 Vibrational             87.095              0.000              0.000

 Optimization completed.
    -- Stationary point found.
 Normal termination of Gaussian 16 at Sun Oct 13 23:20:25 2019.
