 Gaussian 16, Revision A.03,
 Gaussian 16:  ES64L-G16RevA.03 25-Dec-2016

 -------------------------------------------------------------------
 #P opt freq m062x/6-311++g(d,p) geom=connectivity temperature=0.001
 -------------------------------------------------------------------

 -------------------
 Title Card Required
 -------------------
 Symbolic Z-matrix:
 Charge =  1 Multiplicity = 1

 SCF Done:  E(RM062X) =  -783.187780496     A.U. after   16 cycles
 SCF Done:  E(RM062X) =  -783.240836517     A.U. after   14 cycles
 SCF Done:  E(RM062X) =  -783.279873135     A.U. after   15 cycles
 SCF Done:  E(RM062X) =  -783.285940468     A.U. after   16 cycles
 SCF Done:  E(RM062X) =  -783.286530820     A.U. after   14 cycles
 SCF Done:  E(RM062X) =  -783.286646041     A.U. after   13 cycles
 SCF Done:  E(RM062X) =  -783.286669480     A.U. after   12 cycles
 SCF Done:  E(RM062X) =  -783.286681339     A.U. after   12 cycles
 SCF Done:  E(RM062X) =  -783.286687085     A.U. after   12 cycles
 SCF Done:  E(RM062X) =  -783.286688896     A.U. after   11 cycles
 SCF Done:  E(RM062X) =  -783.286689202     A.U. after   10 cycles
 SCF Done:  E(RM062X) =  -783.286689475     A.U. after   10 cycles
 Optimization completed.
    -- Stationary point found.
 Normal termination of Gaussian 16 at Sun Oct 13 23:18:09 2019.

 ----------------------------------------------------------------------
 #P Geom=AllCheck Guess=TCheck SCRF=Check GenChk RM062X/6-311++G(d,p) F
 req
 ----------------------------------------------------------------------

 Structure from the checkpoint file:  "34_p.chk"
 -------------------
 Title Card Required
 -------------------
 Charge =  1 Multiplicity = 1

                         Standard orientation:
 ---------------------------------------------------------------------
 Center     Atomic      Atomic             Coordinates (Angstroms)
 Number     Number       Type             X           Y           Z
 ---------------------------------------------------------------------
      1          8           0       -1.912155   -1.220068    1.084617
      2         16           0       -1.406767   -0.670996   -0.368425
      3          6           0       -2.234512    0.898780   -0.302165
      4          6           0       -1.605252    2.047544   -0.488550
      5          6           0        0.296579   -0.301220   -0.112947
      6          6           0        1.171767   -0.638624   -1.143131
      7          6           0        2.520943   -0.346379   -0.975753
      8          6           0        2.961451    0.245023    0.203524
      9          6           0        2.067157    0.557922    1.229316
     10          6           0        0.715198    0.294080    1.078258
     11          1           0       -3.303725    0.773299   -0.173896
     12          1           0       -2.179478    2.966913   -0.495449
     13          1           0       -0.534221    2.117183   -0.641418
     14          1           0        0.814572   -1.116186   -2.048596
     15          1           0        3.224428   -0.593052   -1.760544
     16          1           0        4.015522    0.459362    0.331967
     17          1           0        2.426432    1.007498    2.146348
     18          1           0        0.004347    0.522302    1.864094
     19          1           0       -2.022355   -2.183610    1.064052
 ---------------------------------------------------------------------

 SCF Done:  E(RM062X) =  -783.286689475     A.U. after    1 cycles

 The electronic state is 1-A.
 Alpha  occ. eigenvalues --  -90.21390 -19.86305 -10.75776 -10.75419 -10.73338
 Alpha  occ. eigenvalues --  -10.72416 -10.72043 -10.70555 -10.70367 -10.70303
 Alpha  occ. eigenvalues --   -8.57218  -6.49360  -6.49089  -6.48783  -1.38974
 Alpha  occ. eigenvalues --   -1.15667  -1.10866  -1.03748  -1.01512  -0.98346
 Alpha  occ. eigenvalues --   -0.87267  -0.86254  -0.83113  -0.80124  -0.76209
 Alpha  occ. eigenvalues --   -0.74779  -0.71608  -0.69457  -0.68827  -0.67001
 Alpha  occ. eigenvalues --   -0.65772  -0.63963  -0.61497  -0.60661  -0.58715
 Alpha  occ. eigenvalues --   -0.56785  -0.56653  -0.52000  -0.48163  -0.47334
 Alpha virt. eigenvalues --   -0.20442  -0.16070  -0.14185  -0.13773  -0.12232
 Alpha virt. eigenvalues --   -0.10025  -0.09979  -0.09411  -0.08291  -0.08208
 Alpha virt. eigenvalues --   -0.07253  -0.07191  -0.06020  -0.05180  -0.04937

 Mulliken charges:
               1
     1  O   -0.216008
     2  S    0.023262
     3  C    0.014022
     4  C   -0.500151
     5  C   -0.303194
     6  C   -0.255864
     7  C   -0.290160
     8  C   -0.270186
     9  C   -0.209968
    10  C    0.605243
    11  H    0.343836
    12  H    0.238157
    13  H    0.185330
    14  H    0.252431
    15  H    0.270853
    16  H    0.241946
    17  H    0.267599
    18  H    0.260955
    19  H    0.341898
 Sum of Mulliken charges =   1.00000

 Dipole moment (field-independent basis, Debye):
    X=             -1.8193    Y=             -0.2985    Z=             -0.8195  Tot=              2.0175
 Quadrupole moment (field-independent basis, Debye-Ang):
   XX=            -35.7695   YY=            -49.7462   ZZ=            -58.4109
   XY=              2.1149   XZ=              0.7128   YZ=              0.7358

  Exact polarizability: 135.944   3.504  93.594  -2.399   4.990  91.862
 Approx polarizability: 163.017  12.288 123.391  -5.710  10.877 129.997

                      1                      2                      3
                      A                      A                      A
 Frequencies --     51.7847                96.7742               118.3030
 Red. masses --      4.0322                 4.2964                 2.4381
 Frc consts  --      0.0064                 0.0237                 0.0201
 IR Inten    --      0.3967                 0.4634                 0.4193

                      4                      5                      6
                      A                      A                      A
 Frequencies --    168.3043               237.8248               272.1733
 Red. masses --      5.1344                 3.4955                 3.5086
 Frc consts  --      0.0857                 0.1165                 0.1531
 IR Inten    --      1.6953                 6.3207                42.9259

                      7                      8                      9
                      A                      A                      A
 Frequencies --    330.0530               360.3658               397.1074
 Red. masses --      1.6564                 2.3437                 3.0779
 Frc consts  --      0.1063                 0.1793                 0.2860
 IR Inten    --     63.5982                16.8110                24.4361

                     10                     11                     12
                      A                      A                      A
 Frequencies --    410.0246               472.1908               503.1534
 Red. masses --      3.0255                 4.8827                 3.7325
 Frc consts  --      0.2997                 0.6414                 0.5567
 IR Inten    --      1.7078                 9.8583                12.3626

                     13                     14                     15
                      A                      A                      A
 Frequencies --    618.6872               633.6758               688.1801
 Red. masses --      6.2262                 2.1511                 2.9193
 Frc consts  --      1.4041                 0.5089                 0.8146
 IR Inten    --      0.7458                18.8920                10.7314

                     16                     17                     18
                      A                      A                      A
 Frequencies --    698.0967               722.6483               770.0971
 Red. masses --      2.9275                 5.8789                 1.3647
 Frc consts  --      0.8406                 1.8088                 0.4769
 IR Inten    --     18.7639                 8.6978                56.0942

                     19                     20                     21
                      A                      A                      A
 Frequencies --    818.8389               865.6701               961.6775
 Red. masses --     14.7049                 1.2573                 1.2791
 Frc consts  --      5.8091                 0.5551                 0.6970
 IR Inten    --    102.3737                 0.2155                 0.1389

                     22                     23                     24
                      A                      A                      A
 Frequencies --    974.3742              1010.7125              1018.4639
 Red. masses --      1.0928                 6.0792                 1.3866
 Frc consts  --      0.6113                 3.6589                 0.8474
 IR Inten    --     26.7488                 2.3101                 0.1687

                     25                     26                     27
                      A                      A                      A
 Frequencies --   1031.4149              1036.0305              1046.2636
 Red. masses --      1.3541                 1.3305                 1.3308
 Frc consts  --      0.8487                 0.8414                 0.8583
 IR Inten    --      7.3737                21.6656                 0.0831

                     28                     29                     30
                      A                      A                      A
 Frequencies --   1049.9506              1097.9858              1120.2770
 Red. masses --      2.9040                 2.6777                 1.5155
 Frc consts  --      1.8862                 1.9020                 1.1206
 IR Inten    --      0.7340                41.1816                 5.5565

                     31                     32                     33
                      A                      A                      A
 Frequencies --   1179.8442              1194.9820              1210.1241
 Red. masses --      1.1198                 1.1409                 1.1437
 Frc consts  --      0.9184                 0.9599                 0.9868
 IR Inten    --     98.5911                 0.4579                 1.9306

                     34                     35                     36
                      A                      A                      A
 Frequencies --   1284.7210              1336.0138              1353.4143
 Red. masses --      1.2064                 2.9094                 1.7037
 Frc consts  --      1.1731                 3.0596                 1.8387
 IR Inten    --     18.2247                 2.9953                10.9241

                     37                     38                     39
                      A                      A                      A
 Frequencies --   1423.9130              1491.6010              1512.9598
 Red. masses --      1.1722                 2.2563                 2.0456
 Frc consts  --      1.4003                 2.9577                 2.7589
 IR Inten    --     25.2853                23.5747                 3.7059

                     40                     41                     42
                      A                      A                      A
 Frequencies --   1644.0056              1651.9095              1681.4011
 Red. masses --      5.4858                 5.9568                 4.4339
 Frc consts  --      8.7357                 9.5771                 7.3855
 IR Inten    --     12.9452                 0.2609                 1.8779

                     43                     44                     45
                      A                      A                      A
 Frequencies --   3175.2171              3212.4765              3217.5316
 Red. masses --      1.0593                 1.0914                 1.0903
 Frc consts  --      6.2926                 6.6359                 6.6504
 IR Inten    --      6.8915                 1.0491                 2.7174

                     46                     47                     48
                      A                      A                      A
 Frequencies --   3220.3131              3224.0059              3235.0973
 Red. masses --      1.0989                 1.0921                 1.0957
 Frc consts  --      6.7145                 6.6884                 6.7562
 IR Inten    --     18.8705                 0.9162                 2.5242

                     49                     50                     51
                      A                      A                      A
 Frequencies --   3240.4319              3271.7089              3796.0460
 Red. masses --      1.0993                 1.1182                 1.0678
 Frc consts  --      6.8012                 7.0519                 9.0657
 IR Inten    --      0.4834                10.9682               283.2910

 - Thermochemistry -
 -------------------
 Temperature     0.001 Kelvin.  Pressure   1.00000 Atm.
 Atom     1 has atomic number  8 and mass  15.99491

 Molecular mass:   153.03741 amu.
 Principal axes and moments of inertia in atomic units:
                           1         2         3
     Eigenvalues --   847.403012238.767432340.98953
           X            0.99994  -0.01049  -0.00270
           Y            0.01060   0.99885   0.04684
           Z            0.00220  -0.04687   0.99890
 This molecule is an asymmetric top.
 Rotational symmetry number  1.
 Warning -- assumption of classical behavior for rotation
           may cause significant error
 Rotational temperatures (Kelvin)      0.10221     0.03869     0.03700
 Rotational constants (GHZ):           2.12973     0.80613     0.77093
 Zero-point vibrational energy     395598.0 (Joules/Mol)
                                   94.55019 (Kcal/Mol)
 Vibrational temperatures:     74.51   139.24   170.21   242.15   342.18
          (Kelvin)            391.60   474.87   518.49   571.35   589.93
                              679.38   723.93   890.15   911.72   990.14
                             1004.41  1039.73  1108.00  1178.13  1245.51
                             1383.64  1401.91  1454.19  1465.34  1483.98
                             1490.62  1505.34  1510.64  1579.76  1611.83
                             1697.53  1719.31  1741.10  1848.43  1922.23
                             1947.26  2048.69  2146.08  2176.81  2365.36
                             2376.73  2419.16  4568.43  4622.04  4629.31
                             4633.31  4638.63  4654.58  4662.26  4707.26
                             5461.66

 Zero-point correction=                           0.150675 (Hartree/Particle)
 Thermal correction to Energy=                    0.150675
 Thermal correction to Enthalpy=                  0.150675
 Thermal correction to Gibbs Free Energy=         0.150675
 Sum of electronic and zero-point Energies=           -783.136014
 Sum of electronic and thermal Energies=              -783.136014
 Sum of electronic and thermal Enthalpies=            -783.136014
 Sum of electronic and thermal Free Energies=         -783.136014

                     E (Thermal)             CV                S
                      KCal/Mol        Cal/Mol-Kelvin    Cal/Mol-Kelvin
 Total                   94.550              5.962            -29.336
 Electronic               0.000              0.000              0.000
 Translational            0.000              2.981            -21.637
 Rotational               0.000              2.981             -7.699
 Vibrational             94.550              0.000              0.000

 Optimization completed.
    -- Stationary point found.
 Normal termination of Gaussian 16 at Sun Oct 13 23:20:24 2019.
