 Gaussian 16, Revision A.03,
 Gaussian 16:  ES64L-G16RevA.03 25-Dec-2016

 -------------------------------------------------------------------
 #P opt freq m062x/6-311++g(d,p) geom=connectivity temperature=0.001
 -------------------------------------------------------------------

 -------------------
 Title Card Required
 -------------------
 Symbolic Z-matrix:
 Charge =  0 Multiplicity = 1

 SCF Done:  E(RM062X) =  -1495.79195843     A.U. after   18 cycles
 SCF Done:  E(RM062X) =  -1495.83834207     A.U. after   16 cycles
 SCF Done:  E(RM062X) =  -1495.86125912     A.U. after   16 cycles
 SCF Done:  E(RM062X) =  -1495.86904293     A.U. after   16 cycles
 SCF Done:  E(RM062X) =  -1495.87417956     A.U. after   17 cycles
 SCF Done:  E(RM062X) =  -1495.87514450     A.U. after   15 cycles
 SCF Done:  E(RM062X) =  -1495.87553097     A.U. after   16 cycles
 SCF Done:  E(RM062X) =  -1495.87573017     A.U. after   14 cycles
 SCF Done:  E(RM062X) =  -1495.87581856     A.U. after   14 cycles
 SCF Done:  E(RM062X) =  -1495.87592394     A.U. after   14 cycles
 SCF Done:  E(RM062X) =  -1495.87958297     A.U. after   13 cycles
 SCF Done:  E(RM062X) =  -1495.87983610     A.U. after   14 cycles
 SCF Done:  E(RM062X) =  -1495.88000678     A.U. after   14 cycles
 SCF Done:  E(RM062X) =  -1495.88002078     A.U. after   14 cycles
 SCF Done:  E(RM062X) =  -1495.88003423     A.U. after   13 cycles
 SCF Done:  E(RM062X) =  -1495.88003621     A.U. after   12 cycles
 SCF Done:  E(RM062X) =  -1495.88003636     A.U. after   10 cycles
 SCF Done:  E(RM062X) =  -1495.88003649     A.U. after   10 cycles
 SCF Done:  E(RM062X) =  -1495.88003654     A.U. after   11 cycles
 Optimization completed.
    -- Stationary point found.
 Normal termination of Gaussian 16 at Mon Oct 14 01:09:34 2019.

 ----------------------------------------------------------------------
 #P Geom=AllCheck Guess=TCheck SCRF=Check GenChk RM062X/6-311++G(d,p) F
 req
 ----------------------------------------------------------------------

 Structure from the checkpoint file:  "35.chk"
 -------------------
 Title Card Required
 -------------------
 Charge =  0 Multiplicity = 1

                         Standard orientation:
 ---------------------------------------------------------------------
 Center     Atomic      Atomic             Coordinates (Angstroms)
 Number     Number       Type             X           Y           Z
 ---------------------------------------------------------------------
      1          8           0        5.782742   -1.863125    0.955490
      2          6           0        5.404945   -0.832371    0.473760
      3          8           0        5.562179    0.360760    1.076802
      4          6           0        4.665768   -0.700430   -0.838319
      5          6           0        3.190454   -0.580616   -0.576250
      6          6           0        2.500978    0.702346   -0.374633
      7          6           0        3.021685    1.985200   -0.312314
      8          6           0        2.126951    3.012677   -0.050217
      9          9           0        2.600548    4.269643    0.016524
     10          6           0        0.776448    2.803606    0.166088
     11          6           0        0.268899    1.504454    0.103120
     12          6           0        1.125729    0.452167   -0.187756
     13          6           0        2.297651   -1.589153   -0.467017
     14          6           0        2.565358   -3.056108   -0.560790
     15          6           0        0.944972   -1.018530   -0.260747
     16          6           0       -0.155499   -1.783332   -0.158863
     17          6           0       -1.559403   -1.342637   -0.091835
     18          6           0       -2.425584   -1.925944    0.841924
     19          6           0       -3.759098   -1.548114    0.902177
     20          6           0       -4.231092   -0.589405    0.012075
     21         16           0       -5.970143   -0.092796    0.033194
     22          6           0       -5.856170    0.927350    1.533083
     23          8           0       -6.146897    0.870494   -1.109242
     24          6           0       -3.406231   -0.026969   -0.950557
     25          6           0       -2.069813   -0.407281   -0.996881
     26          1           0        5.983656    0.204915    1.933192
     27          1           0        5.024922    0.183877   -1.368700
     28          1           0        4.887394   -1.585962   -1.431290
     29          1           0        4.077815    2.198640   -0.421660
     30          1           0        0.139465    3.650481    0.385644
     31          1           0       -0.783720    1.341325    0.290974
     32          1           0        2.228222   -3.566774    0.345567
     33          1           0        2.036088   -3.501959   -1.407641
     34          1           0        3.630691   -3.258588   -0.667024
     35          1           0       -0.009524   -2.861298   -0.131970
     36          1           0       -2.044879   -2.676056    1.526345
     37          1           0       -4.425610   -2.007727    1.625190
     38          1           0       -5.566978    0.303005    2.378328
     39          1           0       -5.122336    1.711491    1.347990
     40          1           0       -6.843402    1.358110    1.695194
     41          1           0       -3.828791    0.685223   -1.651501
     42          1           0       -1.411540    0.012745   -1.749148
 ---------------------------------------------------------------------

 SCF Done:  E(RM062X) =  -1495.88003654     A.U. after    1 cycles

 The electronic state is 1-A.
 Alpha  occ. eigenvalues --  -90.01002 -25.25356 -19.68436 -19.63082 -19.58856
 Alpha  occ. eigenvalues --  -10.69365 -10.63525 -10.58823 -10.58001 -10.57721
 Alpha  occ. eigenvalues --  -10.57685 -10.57461 -10.57327 -10.57326 -10.57222
 Alpha  occ. eigenvalues --  -10.56861 -10.56830 -10.56692 -10.56575 -10.56547
 Alpha  occ. eigenvalues --  -10.56224 -10.55947 -10.55626 -10.55355 -10.54761
 Alpha  occ. eigenvalues --   -8.36652  -6.28717  -6.28640  -6.28292  -1.37455
 Alpha  occ. eigenvalues --   -1.25495  -1.15939  -1.14160  -1.01463  -0.99681
 Alpha  occ. eigenvalues --   -0.95319  -0.92651  -0.89906  -0.87380  -0.87072
 Alpha  occ. eigenvalues --   -0.86362  -0.85822  -0.82804  -0.78972  -0.75990
 Alpha  occ. eigenvalues --   -0.73018  -0.72405  -0.71310  -0.70053  -0.68423
 Alpha  occ. eigenvalues --   -0.65945  -0.64064  -0.61017  -0.60489  -0.59510
 Alpha  occ. eigenvalues --   -0.58718  -0.58476  -0.56915  -0.56817  -0.56128
 Alpha  occ. eigenvalues --   -0.54656  -0.54339  -0.53788  -0.53282  -0.52831
 Alpha  occ. eigenvalues --   -0.52081  -0.51604  -0.51008  -0.50805  -0.50131
 Alpha  occ. eigenvalues --   -0.49258  -0.48730  -0.47422  -0.47345  -0.47030
 Alpha  occ. eigenvalues --   -0.46502  -0.45652  -0.44878  -0.44460  -0.43921
 Alpha  occ. eigenvalues --   -0.42850  -0.41422  -0.41270  -0.40102  -0.39447
 Alpha  occ. eigenvalues --   -0.37830  -0.35206  -0.34787  -0.33799  -0.33286
 Alpha  occ. eigenvalues --   -0.30457  -0.28396  -0.27594
 Alpha virt. eigenvalues --   -0.06076  -0.01540  -0.01071  -0.00799  -0.00597
 Alpha virt. eigenvalues --   -0.00156   0.00189   0.00433   0.01105   0.01256
 Alpha virt. eigenvalues --    0.01852   0.02327   0.02517   0.02683   0.02907

 Mulliken charges:
               1
     1  O   -0.249590
     2  C   -0.075484
     3  O   -0.210211
     4  C   -0.254046
     5  C   -0.046860
     6  C    0.807787
     7  C   -0.711361
     8  C   -0.642231
     9  F   -0.154851
    10  C    0.385170
    11  C   -0.729243
    12  C    0.216099
    13  C    0.194909
    14  C   -0.579047
    15  C    0.243876
    16  C   -0.351977
    17  C    0.556965
    18  C   -0.217759
    19  C   -0.664664
    20  C   -0.322477
    21  S    0.711107
    22  C   -0.742842
    23  O   -0.445764
    24  C    0.105230
    25  C   -0.463916
    26  H    0.310670
    27  H    0.209688
    28  H    0.238281
    29  H    0.206985
    30  H    0.248115
    31  H    0.093503
    32  H    0.193945
    33  H    0.185666
    34  H    0.181927
    35  H    0.223913
    36  H    0.228978
    37  H    0.217208
    38  H    0.145658
    39  H    0.221637
    40  H    0.220192
    41  H    0.309140
    42  H    0.205676
 Sum of Mulliken charges =   0.00000

 Dipole moment (field-independent basis, Debye):
    X=              0.7007    Y=             -2.5191    Z=              3.0394  Tot=              4.0093
 Quadrupole moment (field-independent basis, Debye-Ang):
   XX=           -165.8273   YY=           -158.8847   ZZ=           -149.5984
   XY=              9.0025   XZ=            -26.4296   YZ=              4.5044

  Exact polarizability: 379.052   4.603 270.914 -13.762  -5.199 177.030
 Approx polarizability: 400.509  14.660 367.669 -17.443 -20.728 254.572

                      1                      2                      3
                      A                      A                      A
 Frequencies --     23.0479                23.5248                27.9413
 Red. masses --      6.3498                 5.8851                 6.4766
 Frc consts  --      0.0020                 0.0019                 0.0030
 IR Inten    --      0.4975                 0.3813                 2.4406

                      4                      5                      6
                      A                      A                      A
 Frequencies --     36.7770                43.0464                64.9718
 Red. masses --      7.9360                 9.4753                 4.3433
 Frc consts  --      0.0063                 0.0103                 0.0108
 IR Inten    --      3.2964                 0.9424                 2.4213

                      7                      8                      9
                      A                      A                      A
 Frequencies --     70.2761                91.9378               107.5039
 Red. masses --      5.4071                 5.2523                 4.3776
 Frc consts  --      0.0157                 0.0262                 0.0298
 IR Inten    --      0.3530                 0.3049                 1.9440

                     10                     11                     12
                      A                      A                      A
 Frequencies --    119.3654               149.0313               168.0650
 Red. masses --      4.6936                 1.0514                 5.4954
 Frc consts  --      0.0394                 0.0138                 0.0915
 IR Inten    --      0.9824                 0.2074                 1.0394

                     13                     14                     15
                      A                      A                      A
 Frequencies --    171.9974               180.3786               202.0366
 Red. masses --      5.1161                 4.7395                 4.1242
 Frc consts  --      0.0892                 0.0909                 0.0992
 IR Inten    --      3.7168                 1.9165                 0.4494

                     16                     17                     18
                      A                      A                      A
 Frequencies --    211.4947               232.7263               260.7788
 Red. masses --      1.8228                 1.9502                 5.6081
 Frc consts  --      0.0480                 0.0622                 0.2247
 IR Inten    --      0.2644                 1.7386                 3.3460

                     19                     20                     21
                      A                      A                      A
 Frequencies --    278.2103               310.6782               318.0081
 Red. masses --      3.5248                 4.6230                 4.2828
 Frc consts  --      0.1607                 0.2629                 0.2552
 IR Inten    --      1.0315                 4.7762                 4.3404

                     22                     23                     24
                      A                      A                      A
 Frequencies --    346.5232               373.4314               400.7829
 Red. masses --      4.6362                 6.6942                 4.9460
 Frc consts  --      0.3280                 0.5500                 0.4681
 IR Inten    --      0.2736                 4.2060                 4.0599

                     25                     26                     27
                      A                      A                      A
 Frequencies --    414.1675               425.9937               436.0060
 Red. masses --      3.3566                 3.3582                 7.1794
 Frc consts  --      0.3392                 0.3591                 0.8041
 IR Inten    --      0.4430                 2.2212                 5.3159

                     28                     29                     30
                      A                      A                      A
 Frequencies --    445.0694               453.9551               462.7402
 Red. masses --      2.6330                 3.1809                 5.9681
 Frc consts  --      0.3073                 0.3862                 0.7529
 IR Inten    --      4.3815                 2.2127                 4.5502

                     31                     32                     33
                      A                      A                      A
 Frequencies --    486.2619               529.8022               538.7314
 Red. masses --      5.3326                 2.7050                 4.6341
 Frc consts  --      0.7429                 0.4474                 0.7924
 IR Inten    --      7.4002                11.8167                 3.1565

                     34                     35                     36
                      A                      A                      A
 Frequencies --    546.1410               592.7182               613.6522
 Red. masses --      3.0495                 3.4986                 2.2599
 Frc consts  --      0.5359                 0.7242                 0.5014
 IR Inten    --     25.7068                92.9055                52.8904

                     37                     38                     39
                      A                      A                      A
 Frequencies --    635.6331               640.2744               643.5203
 Red. masses --      3.4719                 5.6484                 2.6097
 Frc consts  --      0.8265                 1.3643                 0.6367
 IR Inten    --     13.9831                 4.0529                23.7952

                     40                     41                     42
                      A                      A                      A
 Frequencies --    675.8670               689.8258               695.6336
 Red. masses --      5.1781                 3.9935                 5.1388
 Frc consts  --      1.3936                 1.1196                 1.4651
 IR Inten    --      1.6797                14.1451                 9.8237

                     43                     44                     45
                      A                      A                      A
 Frequencies --    720.1774               728.1869               752.9562
 Red. masses --      5.0719                 4.6674                 4.0107
 Frc consts  --      1.5499                 1.4582                 1.3397
 IR Inten    --     10.9618                 4.3684                 6.8475

                     46                     47                     48
                      A                      A                      A
 Frequencies --    766.5635               808.8638               842.0736
 Red. masses --      4.7361                 4.4911                 1.5758
 Frc consts  --      1.6397                 1.7312                 0.6583
 IR Inten    --      0.3533                27.3816                25.6526

                     49                     50                     51
                      A                      A                      A
 Frequencies --    847.8018               858.7871               881.8839
 Red. masses --      1.5872                 3.0238                 1.5960
 Frc consts  --      0.6722                 1.3139                 0.7313
 IR Inten    --     14.7002                 5.9690                37.4552

                     52                     53                     54
                      A                      A                      A
 Frequencies --    886.2009               900.9450               917.4796
 Red. masses --      1.2869                 2.0624                 3.5175
 Frc consts  --      0.5955                 0.9863                 1.7445
 IR Inten    --      3.6135                 6.5266                11.9642

                     55                     56                     57
                      A                      A                      A
 Frequencies --    921.1273               946.1447               963.0871
 Red. masses --      2.2405                 2.6865                 1.4334
 Frc consts  --      1.1201                 1.4170                 0.7833
 IR Inten    --     27.4528                11.9803                 7.1174

                     58                     59                     60
                      A                      A                      A
 Frequencies --    979.4922               981.0223               986.9450
 Red. masses --      1.3234                 1.3308                 1.3890
 Frc consts  --      0.7481                 0.7546                 0.7972
 IR Inten    --     18.9549                21.2634                 4.3662

                     61                     62                     63
                      A                      A                      A
 Frequencies --   1005.9262              1027.0339              1034.9762
 Red. masses --      2.3476                 1.3399                 2.7738
 Frc consts  --      1.3996                 0.8327                 1.7506
 IR Inten    --      4.3049                 1.9427                18.6821

                     64                     65                     66
                      A                      A                      A
 Frequencies --   1036.0453              1056.5946              1071.6295
 Red. masses --      2.6981                 1.5536                 8.2528
 Frc consts  --      1.7063                 1.0219                 5.5839
 IR Inten    --     14.7614                 1.0872               136.1526

                     67                     68                     69
                      A                      A                      A
 Frequencies --   1090.0340              1113.0155              1133.7245
 Red. masses --      2.1498                 3.1935                 1.3462
 Frc consts  --      1.5050                 2.3309                 1.0195
 IR Inten    --     20.9409                24.5510                 5.6230

                     70                     71                     72
                      A                      A                      A
 Frequencies --   1140.4246              1160.4815              1169.6668
 Red. masses --      1.5532                 1.6092                 2.1900
 Frc consts  --      1.1901                 1.2768                 1.7653
 IR Inten    --      0.4871               161.7765                 2.8071

                     73                     74                     75
                      A                      A                      A
 Frequencies --   1203.9136              1226.8664              1240.6789
 Red. masses --      1.1474                 2.6903                 2.4546
 Frc consts  --      0.9799                 2.3858                 2.2261
 IR Inten    --      1.7255                17.7141                17.3713

                     76                     77                     78
                      A                      A                      A
 Frequencies --   1254.0871              1269.2286              1305.7698
 Red. masses --      1.5373                 2.0245                 2.3503
 Frc consts  --      1.4245                 1.9216                 2.3610
 IR Inten    --     87.3084                40.9165                10.8755

                     79                     80                     81
                      A                      A                      A
 Frequencies --   1308.2153              1316.0086              1324.5410
 Red. masses --      1.6213                 5.1685                 1.3302
 Frc consts  --      1.6348                 5.2739                 1.3749
 IR Inten    --      8.8376                 4.8807                 3.6775

                     82                     83                     84
                      A                      A                      A
 Frequencies --   1340.9434              1351.1634              1365.2954
 Red. masses --      1.1974                 4.1474                 2.3053
 Frc consts  --      1.2685                 4.4611                 2.5318
 IR Inten    --      7.0817                 9.3934                14.2284

                     85                     86                     87
                      A                      A                      A
 Frequencies --   1385.3888              1408.2415              1430.5456
 Red. masses --      2.6919                 2.0250                 2.0148
 Frc consts  --      3.0441                 2.3661                 2.4293
 IR Inten    --    105.1070                20.8234                 4.7278

                     88                     89                     90
                      A                      A                      A
 Frequencies --   1439.7410              1447.5994              1465.6615
 Red. masses --      2.6978                 1.0496                 1.0525
 Frc consts  --      3.2948                 1.2958                 1.3321
 IR Inten    --     13.6396                 9.7208                17.2222

                     91                     92                     93
                      A                      A                      A
 Frequencies --   1478.7954              1484.3235              1487.6148
 Red. masses --      1.2040                 1.1332                 2.7179
 Frc consts  --      1.5512                 1.4710                 3.5437
 IR Inten    --     28.8963                 1.9998                15.6367

                     94                     95                     96
                      A                      A                      A
 Frequencies --   1504.9291              1523.8002              1535.8929
 Red. masses --      1.0852                 3.5546                 2.5902
 Frc consts  --      1.4480                 4.8629                 3.6000
 IR Inten    --     14.5598               140.0115                40.6582

                     97                     98                     99
                      A                      A                      A
 Frequencies --   1636.3104              1663.0751              1665.4145
 Red. masses --      7.3404                 7.6906                 6.0035
 Frc consts  --     11.5798                12.5324                 9.8107
 IR Inten    --      0.5958                17.8465                 6.1346

                    100                    101                    102
                      A                      A                      A
 Frequencies --   1682.3502              1705.4799              1730.5164
 Red. masses --      7.4090                 8.7861                 9.0614
 Frc consts  --     12.3550                15.0570                15.9882
 IR Inten    --    125.2002                13.0570                18.9185

                    103                    104                    105
                      A                      A                      A
 Frequencies --   1875.8769              3058.5911              3075.1040
 Red. masses --     10.1298                 1.0388                 1.0282
 Frc consts  --     21.0019                 5.7256                 5.7285
 IR Inten    --    406.0106                15.2272                 2.8032

                    106                    107                    108
                      A                      A                      A
 Frequencies --   3100.2527              3113.9506              3158.5923
 Red. masses --      1.0621                 1.1005                 1.1000
 Frc consts  --      6.0149                 6.2871                 6.4657
 IR Inten    --      7.3923                 6.4121                 6.6504

                    109                    110                    111
                      A                      A                      A
 Frequencies --   3164.4465              3168.5958              3185.2323
 Red. masses --      1.0875                 1.1015                 1.1065
 Frc consts  --      6.4164                 6.5160                 6.6145
 IR Inten    --      4.0071                 3.8721                 1.6331

                    112                    113                    114
                      A                      A                      A
 Frequencies --   3185.7870              3188.7746              3203.7422
 Red. masses --      1.1067                 1.0899                 1.0887
 Frc consts  --      6.6178                 6.5297                 6.5836
 IR Inten    --      0.6430                 2.0878                 4.7409

                    115                    116                    117
                      A                      A                      A
 Frequencies --   3209.5481              3216.0258              3228.3753
 Red. masses --      1.0948                 1.0954                 1.0922
 Frc consts  --      6.6448                 6.6754                 6.7070
 IR Inten    --      4.0003                 7.1425                 0.4960

                    118                    119                    120
                      A                      A                      A
 Frequencies --   3229.8907              3243.9091              3828.5343
 Red. masses --      1.0905                 1.0947                 1.0647
 Frc consts  --      6.7025                 6.7871                 9.1948
 IR Inten    --      0.8444                 0.7527               111.0305

 - Thermochemistry -
 -------------------
 Temperature     0.001 Kelvin.  Pressure   1.00000 Atm.
 Atom     1 has atomic number  8 and mass  15.99491

 Molecular mass:   356.08824 amu.
 Principal axes and moments of inertia in atomic units:
                           1         2         3
     Eigenvalues --  4599.38838********************
           X            0.99992  -0.00989  -0.00802
           Y            0.00994   0.99993   0.00699
           Z            0.00795  -0.00707   0.99994
 This molecule is an asymmetric top.
 Rotational symmetry number  1.
 Warning -- assumption of classical behavior for rotation
           may cause significant error
 Rotational temperatures (Kelvin)      0.01883     0.00434     0.00372
 Rotational constants (GHZ):           0.39239     0.09041     0.07754
 Zero-point vibrational energy     852252.2 (Joules/Mol)
                                  203.69316 (Kcal/Mol)
 Vibrational temperatures:     33.16    33.85    40.20    52.91    61.93
          (Kelvin)             93.48   101.11   132.28   154.67   171.74
                              214.42   241.81   247.47   259.52   290.69
                              304.29   334.84   375.20   400.28   447.00
                              457.54   498.57   537.28   576.64   595.89
                              612.91   627.32   640.36   653.14   665.78
                              699.62   762.27   775.11   785.78   852.79
                              882.91   914.53   921.21   925.88   972.42
                              992.51  1000.86  1036.17  1047.70  1083.34
                             1102.91  1163.77  1211.56  1219.80  1235.60
                             1268.83  1275.05  1296.26  1320.05  1325.30
                             1361.29  1385.67  1409.27  1411.47  1419.99
                             1447.30  1477.67  1489.10  1490.64  1520.20
                             1541.84  1568.32  1601.38  1631.18  1640.82
                             1669.67  1682.89  1732.16  1765.19  1785.06
                             1804.35  1826.14  1878.71  1882.23  1893.44
                             1905.72  1929.32  1944.02  1964.36  1993.27
                             2026.15  2058.24  2071.47  2082.77  2108.76
                             2127.66  2135.61  2140.35  2165.26  2192.41
                             2209.81  2354.29  2392.79  2396.16  2420.53
                             2453.81  2489.83  2698.97  4400.63  4424.39
                             4460.57  4480.28  4544.51  4552.93  4558.90
                             4582.84  4583.64  4587.94  4609.47  4617.82
                             4627.14  4644.91  4647.09  4667.26  5508.41

 Zero-point correction=                           0.324606 (Hartree/Particle)
 Thermal correction to Energy=                    0.324606
 Thermal correction to Enthalpy=                  0.324606
 Thermal correction to Gibbs Free Energy=         0.324606
 Sum of electronic and zero-point Energies=          -1495.555431
 Sum of electronic and thermal Energies=             -1495.555431
 Sum of electronic and thermal Enthalpies=           -1495.555431
 Sum of electronic and thermal Free Energies=        -1495.555431

                     E (Thermal)             CV                S
                      KCal/Mol        Cal/Mol-Kelvin    Cal/Mol-Kelvin
 Total                  203.693              5.962            -20.682
 Electronic               0.000              0.000              0.000
 Translational            0.000              2.981            -19.120
 Rotational               0.000              2.981             -1.562
 Vibrational            203.693              0.000              0.000

                           ! Non-Optimized Parameters !
 Normal termination of Gaussian 16 at Mon Oct 14 01:52:00 2019.
