 Gaussian 16, Revision A.03,
 Gaussian 16:  ES64L-G16RevA.03 25-Dec-2016

 -------------------------------------------------------------------
 #P opt freq m062x/6-311++g(d,p) geom=connectivity temperature=0.001
 -------------------------------------------------------------------

 -------------------
 Title Card Required
 -------------------
 Symbolic Z-matrix:
 Charge =  1 Multiplicity = 1

 SCF Done:  E(RM062X) =  -1496.14942758     A.U. after   18 cycles
 SCF Done:  E(RM062X) =  -1496.19522503     A.U. after   15 cycles
 SCF Done:  E(RM062X) =  -1496.21708606     A.U. after   15 cycles
 SCF Done:  E(RM062X) =  -1496.22541960     A.U. after   14 cycles
 SCF Done:  E(RM062X) =  -1496.22998406     A.U. after   15 cycles
 SCF Done:  E(RM062X) =  -1496.23148499     A.U. after   14 cycles
 SCF Done:  E(RM062X) =  -1496.23279647     A.U. after   15 cycles
 SCF Done:  E(RM062X) =  -1496.23470688     A.U. after   15 cycles
 SCF Done:  E(RM062X) =  -1496.23594829     A.U. after   15 cycles
 SCF Done:  E(RM062X) =  -1496.23696695     A.U. after   14 cycles
 SCF Done:  E(RM062X) =  -1496.24154179     A.U. after   15 cycles
 SCF Done:  E(RM062X) =  -1496.24181597     A.U. after   14 cycles
 SCF Done:  E(RM062X) =  -1496.24183130     A.U. after   14 cycles
 SCF Done:  E(RM062X) =  -1496.24185648     A.U. after   14 cycles
 SCF Done:  E(RM062X) =  -1496.24186865     A.U. after   13 cycles
 SCF Done:  E(RM062X) =  -1496.24186673     A.U. after   12 cycles
 SCF Done:  E(RM062X) =  -1496.24187144     A.U. after   12 cycles
 SCF Done:  E(RM062X) =  -1496.24187150     A.U. after   10 cycles
 SCF Done:  E(RM062X) =  -1496.24187170     A.U. after   10 cycles
 Optimization completed.
    -- Stationary point found.
 Normal termination of Gaussian 16 at Mon Oct 14 01:10:25 2019.

 ----------------------------------------------------------------------
 #P Geom=AllCheck Guess=TCheck SCRF=Check GenChk RM062X/6-311++G(d,p) F
 req
 ----------------------------------------------------------------------

 Structure from the checkpoint file:  "35_p.chk"
 -------------------
 Title Card Required
 -------------------
 Charge =  1 Multiplicity = 1

                         Standard orientation:
 ---------------------------------------------------------------------
 Center     Atomic      Atomic             Coordinates (Angstroms)
 Number     Number       Type             X           Y           Z
 ---------------------------------------------------------------------
      1          8           0        5.757747   -1.932031    0.833784
      2          6           0        5.454153   -0.900818    0.307961
      3          8           0        5.758042    0.308862    0.808632
      4          6           0        4.641251   -0.786515   -0.966471
      5          6           0        3.192489   -0.626037   -0.610059
      6          6           0        2.551339    0.682513   -0.380649
      7          6           0        3.112705    1.945212   -0.358273
      8          6           0        2.271550    3.000296   -0.019491
      9          9           0        2.782820    4.235267    0.011308
     10          6           0        0.940443    2.828385    0.314931
     11          6           0        0.393772    1.543212    0.288996
     12          6           0        1.188087    0.472182   -0.089772
     13          6           0        2.287790   -1.608942   -0.411483
     14          6           0        2.507529   -3.084347   -0.486808
     15          6           0        0.964930   -0.994002   -0.143147
     16          6           0       -0.149507   -1.736575    0.006367
     17          6           0       -1.537250   -1.277921    0.088845
     18          6           0       -2.435875   -1.942104    0.935944
     19          6           0       -3.769333   -1.570680    0.993019
     20          6           0       -4.203277   -0.517888    0.185713
     21         16           0       -5.895505   -0.087071    0.310658
     22          6           0       -5.882908    1.679254    0.618086
     23          8           0       -6.415079    0.026908   -1.236331
     24          6           0       -3.342458    0.142312   -0.698480
     25          6           0       -2.020235   -0.248768   -0.744062
     26          1           0        6.240897    0.178804    1.637420
     27          1           0        4.986239    0.070820   -1.546657
     28          1           0        4.801784   -1.696265   -1.542094
     29          1           0        4.163234    2.128007   -0.548128
     30          1           0        0.355415    3.691289    0.604667
     31          1           0       -0.636971    1.409177    0.590382
     32          1           0        2.214307   -3.565742    0.450315
     33          1           0        1.920824   -3.534343   -1.292713
     34          1           0        3.559027   -3.317458   -0.648410
     35          1           0       -0.025616   -2.815121    0.063204
     36          1           0       -2.080708   -2.756501    1.556123
     37          1           0       -4.456946   -2.086561    1.654002
     38          1           0       -5.408323    1.826483    1.587787
     39          1           0       -5.321131    2.163407   -0.179394
     40          1           0       -6.919216    2.012608    0.633668
     41          1           0       -3.709589    0.911486   -1.368651
     42          1           0       -1.342194    0.223840   -1.444414
     43          1           0       -6.855163   -0.790709   -1.515090
 ---------------------------------------------------------------------

 SCF Done:  E(RM062X) =  -1496.24187170     A.U. after    1 cycles

 The electronic state is 1-A.
 Alpha  occ. eigenvalues --  -90.20654 -25.33082 -19.85647 -19.74769 -19.69392
 Alpha  occ. eigenvalues --  -10.75811 -10.74905 -10.74292 -10.71819 -10.71600
 Alpha  occ. eigenvalues --  -10.71305 -10.70915 -10.69395 -10.69309 -10.67246
 Alpha  occ. eigenvalues --  -10.66560 -10.65177 -10.65140 -10.64897 -10.64585
 Alpha  occ. eigenvalues --  -10.64580 -10.64215 -10.63702 -10.63668 -10.62058
 Alpha  occ. eigenvalues --   -8.56480  -6.48627  -6.48338  -6.48055  -1.45416
 Alpha  occ. eigenvalues --   -1.38295  -1.31838  -1.22371  -1.14767  -1.10335
 Alpha  occ. eigenvalues --   -1.09391  -1.03890  -1.02474  -1.00754  -0.98493
 Alpha  occ. eigenvalues --   -0.95026  -0.94541  -0.93766  -0.91371  -0.86935
 Alpha  occ. eigenvalues --   -0.85740  -0.85172  -0.81270  -0.79655  -0.79120
 Alpha  occ. eigenvalues --   -0.77820  -0.76326  -0.74242  -0.72561  -0.71236
 Alpha  occ. eigenvalues --   -0.69792  -0.69605  -0.67715  -0.67153  -0.67007
 Alpha  occ. eigenvalues --   -0.66587  -0.66099  -0.65561  -0.65108  -0.64897
 Alpha  occ. eigenvalues --   -0.64646  -0.63286  -0.62396  -0.62095  -0.60706
 Alpha  occ. eigenvalues --   -0.60004  -0.59635  -0.58575  -0.58079  -0.57751
 Alpha  occ. eigenvalues --   -0.56092  -0.55414  -0.55128  -0.54863  -0.54506
 Alpha  occ. eigenvalues --   -0.54284  -0.53567  -0.52768  -0.50057  -0.49302
 Alpha  occ. eigenvalues --   -0.48787  -0.47397  -0.46660  -0.46288  -0.44229
 Alpha  occ. eigenvalues --   -0.42149  -0.37581  -0.35896
 Alpha virt. eigenvalues --   -0.20049  -0.15194  -0.13273  -0.12435  -0.11677
 Alpha virt. eigenvalues --   -0.11134  -0.09758  -0.09154  -0.08227  -0.07919
 Alpha virt. eigenvalues --   -0.07646  -0.07589  -0.07027  -0.06493  -0.06323

 Mulliken charges:
               1
     1  O   -0.238190
     2  C   -0.078449
     3  O   -0.200752
     4  C   -0.291348
     5  C   -0.131065
     6  C    0.749449
     7  C   -0.566169
     8  C   -0.679918
     9  F   -0.133713
    10  C    0.323406
    11  C   -0.641997
    12  C    0.362095
    13  C   -0.039918
    14  C   -0.566545
    15  C    0.389261
    16  C   -0.318577
    17  C    0.664165
    18  C   -0.197101
    19  C   -0.272839
    20  C   -0.458781
    21  S    0.090270
    22  C   -0.600226
    23  O   -0.209367
    24  C    0.232041
    25  C   -0.453431
    26  H    0.319815
    27  H    0.222357
    28  H    0.243359
    29  H    0.233004
    30  H    0.250555
    31  H    0.120973
    32  H    0.196731
    33  H    0.186336
    34  H    0.198633
    35  H    0.226733
    36  H    0.274133
    37  H    0.253424
    38  H    0.239869
    39  H    0.213031
    40  H    0.260405
    41  H    0.276777
    42  H    0.216802
    43  H    0.334765
 Sum of Mulliken charges =   1.00000

 Dipole moment (field-independent basis, Debye):
    X=            -19.9418    Y=             -1.1633    Z=              0.3874  Tot=             19.9795
 Quadrupole moment (field-independent basis, Debye-Ang):
   XX=             -6.1714   YY=           -140.3874   ZZ=           -142.8714
   XY=              0.8387   XZ=             -8.4551   YZ=              4.3213

  Exact polarizability: 427.335   9.279 273.066 -13.489  -4.873 162.959
 Approx polarizability: 445.892  20.576 370.695 -23.465 -17.692 236.109

                      1                      2                      3
                      A                      A                      A
 Frequencies --     22.9423                23.5912                26.3567
 Red. masses --      6.2362                 4.9399                 6.1881
 Frc consts  --      0.0019                 0.0016                 0.0025
 IR Inten    --      0.5386                 0.5099                 0.8616

                      4                      5                      6
                      A                      A                      A
 Frequencies --     29.4714                44.8260                64.0342
 Red. masses --      9.0086                 7.7493                 5.4581
 Frc consts  --      0.0046                 0.0092                 0.0132
 IR Inten    --      0.9591                 1.5773                 0.8624

                      7                      8                      9
                      A                      A                      A
 Frequencies --     68.8122                89.6268               107.5817
 Red. masses --      4.6109                 5.2152                 3.9748
 Frc consts  --      0.0129                 0.0247                 0.0271
 IR Inten    --      5.1563                 1.4549                 0.3678

                     10                     11                     12
                      A                      A                      A
 Frequencies --    113.0721               152.7947               162.7311
 Red. masses --      4.8314                 1.2052                 3.3567
 Frc consts  --      0.0364                 0.0166                 0.0524
 IR Inten    --      2.6332                 0.4721                 0.9039

                     13                     14                     15
                      A                      A                      A
 Frequencies --    170.2155               179.8781               204.7239
 Red. masses --      4.8309                 4.5855                 2.1258
 Frc consts  --      0.0825                 0.0874                 0.0525
 IR Inten    --      2.9868                 0.7779                 3.1156

                     16                     17                     18
                      A                      A                      A
 Frequencies --    206.1151               218.8828               258.0038
 Red. masses --      2.2504                 2.2957                 5.7625
 Frc consts  --      0.0563                 0.0648                 0.2260
 IR Inten    --      0.6085                 1.9320                 8.3174

                     19                     20                     21
                      A                      A                      A
 Frequencies --    262.7300               276.6264               301.0875
 Red. masses --      1.6723                 3.9073                 3.0820
 Frc consts  --      0.0680                 0.1762                 0.1646
 IR Inten    --    147.5624                 5.7022                16.8276

                     22                     23                     24
                      A                      A                      A
 Frequencies --    329.2294               342.2005               379.9523
 Red. masses --      2.4023                 4.4803                 6.1516
 Frc consts  --      0.1534                 0.3091                 0.5232
 IR Inten    --     11.6699                 0.0517                 1.7508

                     25                     26                     27
                      A                      A                      A
 Frequencies --    392.6432               414.4318               424.4405
 Red. masses --      3.9600                 3.0192                 4.1480
 Frc consts  --      0.3597                 0.3055                 0.4403
 IR Inten    --     13.3018                 0.6089                13.8743

                     28                     29                     30
                      A                      A                      A
 Frequencies --    436.2974               445.9426               450.6833
 Red. masses --      6.4940                 3.2464                 2.3832
 Frc consts  --      0.7283                 0.3804                 0.2852
 IR Inten    --      9.3742                 5.5160                 1.0556

                     31                     32                     33
                      A                      A                      A
 Frequencies --    459.8875               482.2588               529.1615
 Red. masses --      6.8128                 5.5848                 3.2860
 Frc consts  --      0.8489                 0.7653                 0.5421
 IR Inten    --     28.4325                 1.0677                20.6444

                     34                     35                     36
                      A                      A                      A
 Frequencies --    533.3207               542.0561               594.2466
 Red. masses --      2.9409                 4.4912                 3.5734
 Frc consts  --      0.4928                 0.7775                 0.7435
 IR Inten    --     11.1082                10.7620                83.0628

                     37                     38                     39
                      A                      A                      A
 Frequencies --    620.1986               631.1954               639.8005
 Red. masses --      2.4741                 4.3921                 3.9858
 Frc consts  --      0.5607                 1.0310                 0.9613
 IR Inten    --     52.5958                 8.8488                 6.1471

                     40                     41                     42
                      A                      A                      A
 Frequencies --    649.6010               679.6314               691.0591
 Red. masses --      2.3655                 5.1107                 3.6995
 Frc consts  --      0.5881                 1.3908                 1.0409
 IR Inten    --     65.8105                 7.2833                 5.6001

                     43                     44                     45
                      A                      A                      A
 Frequencies --    711.3674               717.8027               731.8232
 Red. masses --      5.2125                 4.6227                 5.4237
 Frc consts  --      1.5541                 1.4033                 1.7114
 IR Inten    --      2.4674                 2.0902                38.2141

                     46                     47                     48
                      A                      A                      A
 Frequencies --    745.8075               762.3754               811.0750
 Red. masses --      4.1116                 5.2320                 5.0884
 Frc consts  --      1.3474                 1.7917                 1.9722
 IR Inten    --     11.9697                 6.4162                 8.1677

                     49                     50                     51
                      A                      A                      A
 Frequencies --    812.8640               839.5042               847.0303
 Red. masses --      9.8151                 1.5007                 1.6178
 Frc consts  --      3.8210                 0.6232                 0.6839
 IR Inten    --    184.4106                30.1484                11.7387

                     52                     53                     54
                      A                      A                      A
 Frequencies --    857.5513               858.1627               890.0406
 Red. masses --      1.4617                 2.4418                 1.8334
 Frc consts  --      0.6333                 1.0595                 0.8557
 IR Inten    --      1.6526                 8.7190                72.0833

                     55                     56                     57
                      A                      A                      A
 Frequencies --    898.1408               915.2053               920.6408
 Red. masses --      1.6082                 2.4211                 4.1506
 Frc consts  --      0.7643                 1.1948                 2.0727
 IR Inten    --     13.0332                36.8055                 6.8867

                     58                     59                     60
                      A                      A                      A
 Frequencies --    946.1833               969.8173               992.0562
 Red. masses --      2.6067                 1.3652                 1.4251
 Frc consts  --      1.3750                 0.7565                 0.8263
 IR Inten    --      7.7287                 3.8348                 8.6941

                     61                     62                     63
                      A                      A                      A
 Frequencies --    997.7198              1005.8495              1012.9406
 Red. masses --      1.2777                 2.1330                 1.3182
 Frc consts  --      0.7494                 1.2715                 0.7969
 IR Inten    --      2.1685                12.0021                70.7148

                     64                     65                     66
                      A                      A                      A
 Frequencies --   1021.7310              1025.0156              1034.8565
 Red. masses --      1.3668                 3.3683                 2.2851
 Frc consts  --      0.8407                 2.0851                 1.4418
 IR Inten    --      1.3642                15.1397                17.1696

                     67                     68                     69
                      A                      A                      A
 Frequencies --   1056.9527              1090.2011              1100.1587
 Red. masses --      1.5473                 2.1674                 2.8821
 Frc consts  --      1.0184                 1.5177                 2.0553
 IR Inten    --      0.4317                27.8196               182.0849

                     70                     71                     72
                      A                      A                      A
 Frequencies --   1136.4560              1152.5708              1163.3334
 Red. masses --      1.6122                 1.3357                 1.6151
 Frc consts  --      1.2268                 1.0454                 1.2879
 IR Inten    --      1.8955                18.5936               155.5674

                     73                     74                     75
                      A                      A                      A
 Frequencies --   1168.5454              1178.9566              1214.4630
 Red. masses --      2.1804                 1.1426                 1.1665
 Frc consts  --      1.7542                 0.9357                 1.0137
 IR Inten    --      1.6830               100.5116                17.6068

                     76                     77                     78
                      A                      A                      A
 Frequencies --   1230.3076              1244.1657              1259.1118
 Red. masses --      2.5251                 2.2329                 1.5289
 Frc consts  --      2.2519                 2.0365                 1.4281
 IR Inten    --     17.1544                74.7054                76.0772

                     79                     80                     81
                      A                      A                      A
 Frequencies --   1271.8119              1305.1635              1310.1493
 Red. masses --      2.0905                 1.6888                 2.0291
 Frc consts  --      1.9922                 1.6950                 2.0521
 IR Inten    --     60.4698                 5.4395                25.0544

                     82                     83                     84
                      A                      A                      A
 Frequencies --   1326.6893              1335.5353              1355.5265
 Red. masses --      2.9280                 1.7263                 4.5468
 Frc consts  --      3.0364                 1.8142                 4.9224
 IR Inten    --     12.7187                 1.5848                 4.4167

                     85                     86                     87
                      A                      A                      A
 Frequencies --   1368.8027              1371.6218              1385.9187
 Red. masses --      1.2746                 2.1558                 2.6491
 Frc consts  --      1.4071                 2.3896                 2.9979
 IR Inten    --      4.4242                21.7712               135.5240

                     88                     89                     90
                      A                      A                      A
 Frequencies --   1409.5592              1431.4652              1444.9139
 Red. masses --      2.1086                 1.7594                 1.0965
 Frc consts  --      2.4683                 2.1241                 1.3488
 IR Inten    --     40.8861                 5.4233                15.9002

                     91                     92                     93
                      A                      A                      A
 Frequencies --   1453.4864              1457.6876              1479.6238
 Red. masses --      2.3353                 1.0889                 1.2439
 Frc consts  --      2.9068                 1.3632                 1.6045
 IR Inten    --     31.8807                37.6612                35.8118

                     94                     95                     96
                      A                      A                      A
 Frequencies --   1484.6517              1488.5261              1506.2997
 Red. masses --      1.0726                 2.8542                 1.0924
 Frc consts  --      1.3929                 3.7260                 1.4603
 IR Inten    --      7.5758                21.4805                16.0326

                     97                     98                     99
                      A                      A                      A
 Frequencies --   1523.3579              1529.0725              1616.5215
 Red. masses --      2.7466                 2.9875                 6.7464
 Frc consts  --      3.7554                 4.1155                10.3868
 IR Inten    --     67.3904               131.1463                 2.5914

                    100                    101                    102
                      A                      A                      A
 Frequencies --   1641.2960              1667.2046              1679.8944
 Red. masses --      5.5997                 7.6901                 7.3279
 Frc consts  --      8.8877                12.5939                12.1841
 IR Inten    --    469.7987                27.6611               171.3061

                    103                    104                    105
                      A                      A                      A
 Frequencies --   1708.1445              1713.3757              1884.1020
 Red. masses --      8.8181                 8.6620                10.3171
 Frc consts  --     15.1591                14.9821                21.5782
 IR Inten    --     11.2452                88.6591               386.5938

                    106                    107                    108
                      A                      A                      A
 Frequencies --   3059.2941              3086.8328              3107.8023
 Red. masses --      1.0395                 1.0276                 1.0612
 Frc consts  --      5.7320                 5.7692                 6.0386
 IR Inten    --      9.8425                 8.3685                 3.2946

                    109                    110                    111
                      A                      A                      A
 Frequencies --   3115.7278              3164.6836              3173.4254
 Red. masses --      1.1007                 1.1000                 1.1026
 Frc consts  --      6.2955                 6.4911                 6.5425
 IR Inten    --      4.8835                 2.3183                 1.5555

                    112                    113                    114
                      A                      A                      A
 Frequencies --   3176.9219              3198.5591              3203.4619
 Red. masses --      1.0876                 1.1083                 1.1086
 Frc consts  --      6.4673                 6.6804                 6.7030
 IR Inten    --      0.7715                 5.5200                 7.3761

                    115                    116                    117
                      A                      A                      A
 Frequencies --   3207.5125              3210.6902              3221.9962
 Red. masses --      1.0905                 1.0900                 1.0961
 Frc consts  --      6.6101                 6.6204                 6.7042
 IR Inten    --      0.0524                 0.8296                 1.3198

                    118                    119                    120
                      A                      A                      A
 Frequencies --   3223.8035              3226.7016              3231.7638
 Red. masses --      1.0938                 1.0917                 1.0933
 Frc consts  --      6.6979                 6.6966                 6.7279
 IR Inten    --      2.7809                 5.1095                 2.5211

                    121                    122                    123
                      A                      A                      A
 Frequencies --   3241.6027              3802.4480              3819.0115
 Red. masses --      1.0953                 1.0678                 1.0648
 Frc consts  --      6.7814                 9.0964                 9.1497
 IR Inten    --      0.1731               320.8626               133.6323

 - Thermochemistry -
 -------------------
 Temperature     0.001 Kelvin.  Pressure   1.00000 Atm.
 Atom     1 has atomic number  8 and mass  15.99491

 Molecular mass:   357.09607 amu.
 Principal axes and moments of inertia in atomic units:
                           1         2         3
     Eigenvalues --  4537.08460********************
           X            0.99992  -0.01208  -0.00305
           Y            0.01210   0.99991   0.00548
           Z            0.00298  -0.00551   0.99998
 This molecule is an asymmetric top.
 Rotational symmetry number  1.
 Warning -- assumption of classical behavior for rotation
           may cause significant error
 Rotational temperatures (Kelvin)      0.01909     0.00426     0.00363
 Rotational constants (GHZ):           0.39778     0.08876     0.07565
 Zero-point vibrational energy     882818.7 (Joules/Mol)
                                  210.99874 (Kcal/Mol)
 Vibrational temperatures:     33.01    33.94    37.92    42.40    64.49
          (Kelvin)             92.13    99.01   128.95   154.79   162.69
                              219.84   234.13   244.90   258.80   294.55
                              296.55   314.92   371.21   378.01   398.00
                              433.20   473.69   492.35   546.67   564.93
                              596.27   610.68   627.73   641.61   648.43
                              661.68   693.86   761.35   767.33   779.90
                              854.99   892.33   908.15   920.53   934.63
                              977.84   994.28  1023.50  1032.76  1052.93
                             1073.05  1096.89  1166.96  1169.53  1207.86
                             1218.69  1233.83  1234.70  1280.57  1292.22
                             1316.78  1324.60  1361.35  1395.35  1427.35
                             1435.50  1447.19  1457.40  1470.04  1474.77
                             1488.93  1520.72  1568.56  1582.88  1635.11
                             1658.29  1673.78  1681.28  1696.26  1747.34
                             1770.14  1790.08  1811.58  1829.85  1877.84
                             1885.01  1908.81  1921.54  1950.30  1969.40
                             1973.46  1994.03  2028.04  2059.56  2078.91
                             2091.24  2097.29  2128.85  2136.08  2141.66
                             2167.23  2191.77  2199.99  2325.81  2361.46
                             2398.74  2416.99  2457.64  2465.17  2710.80
                             4401.64  4441.26  4471.43  4482.84  4553.27
                             4565.85  4570.88  4602.01  4609.07  4614.90
                             4619.47  4635.73  4638.33  4642.50  4649.79
                             4663.94  5470.87  5494.71

 Zero-point correction=                           0.336248 (Hartree/Particle)
 Thermal correction to Energy=                    0.336248
 Thermal correction to Enthalpy=                  0.336248
 Thermal correction to Gibbs Free Energy=         0.336248
 Sum of electronic and zero-point Energies=          -1495.905624
 Sum of electronic and thermal Energies=             -1495.905624
 Sum of electronic and thermal Enthalpies=           -1495.905624
 Sum of electronic and thermal Free Energies=        -1495.905624

                     E (Thermal)             CV                S
                      KCal/Mol        Cal/Mol-Kelvin    Cal/Mol-Kelvin
 Total                  210.999              5.962            -20.645
 Electronic               0.000              0.000              0.000
 Translational            0.000              2.981            -19.111
 Rotational               0.000              2.981             -1.533
 Vibrational            210.999              0.000              0.000

                           ! Non-Optimized Parameters !
 Normal termination of Gaussian 16 at Mon Oct 14 01:49:09 2019.
