 Gaussian 16, Revision A.03,
 Gaussian 16:  ES64L-G16RevA.03 25-Dec-2016

 -------------------------------------------------------------------
 #P opt freq m062x/6-311++g(d,p) geom=connectivity temperature=0.001
 -------------------------------------------------------------------

 -------------------
 Title Card Required
 -------------------
 Symbolic Z-matrix:
 Charge =  0 Multiplicity = 1

 SCF Done:  E(RM062X) =  -985.423308875     A.U. after   14 cycles
 SCF Done:  E(RM062X) =  -985.455918370     A.U. after   12 cycles
 SCF Done:  E(RM062X) =  -985.484486003     A.U. after   13 cycles
 SCF Done:  E(RM062X) =  -985.486381751     A.U. after   12 cycles
 SCF Done:  E(RM062X) =  -985.486652666     A.U. after   11 cycles
 SCF Done:  E(RM062X) =  -985.487661879     A.U. after   12 cycles
 SCF Done:  E(RM062X) =  -985.488237656     A.U. after   12 cycles
 SCF Done:  E(RM062X) =  -985.489803964     A.U. after   13 cycles
 SCF Done:  E(RM062X) =  -985.490055055     A.U. after   11 cycles
 SCF Done:  E(RM062X) =  -985.490077286     A.U. after   11 cycles
 SCF Done:  E(RM062X) =  -985.490078825     A.U. after   11 cycles
 SCF Done:  E(RM062X) =  -985.490079145     A.U. after    9 cycles
 SCF Done:  E(RM062X) =  -985.490079189     A.U. after    8 cycles
 Optimization completed.
    -- Stationary point found.
 Normal termination of Gaussian 16 at Sun Oct 13 23:36:58 2019.

 ----------------------------------------------------------------------
 #P Geom=AllCheck Guess=TCheck SCRF=Check GenChk RM062X/6-311++G(d,p) F
 req
 ----------------------------------------------------------------------

 Structure from the checkpoint file:  "36.chk"
 -------------------
 Title Card Required
 -------------------
 Charge =  0 Multiplicity = 1

                         Standard orientation:
 ---------------------------------------------------------------------
 Center     Atomic      Atomic             Coordinates (Angstroms)
 Number     Number       Type             X           Y           Z
 ---------------------------------------------------------------------
      1          8           0        6.207212    1.460032    0.741603
      2         16           0        6.291413    0.384760   -0.312602
      3          6           0        7.490476   -0.829479    0.299115
      4          6           0        4.807464   -0.651075   -0.084060
      5          6           0        3.559032    0.189132   -0.312878
      6          6           0        2.280661   -0.598942   -0.031847
      7          6           0        1.019501    0.234661   -0.245589
      8          6           0       -0.263954   -0.543195    0.034470
      9          6           0       -1.526708    0.286807   -0.183604
     10          6           0       -2.810908   -0.490115    0.096114
     11          6           0       -4.074084    0.339485   -0.121118
     12          6           0       -5.358372   -0.437005    0.159792
     13          6           0       -6.621725    0.392115   -0.057036
     14          6           0       -7.906888   -0.383060    0.225152
     15          6           0       -9.160958    0.458671    0.002635
     16          1           0        7.476223   -1.715156   -0.337096
     17          1           0        8.470105   -0.355852    0.261440
     18          1           0        7.234232   -1.072622    1.330654
     19          1           0        4.878671   -1.484916   -0.788554
     20          1           0        4.842482   -1.029405    0.941933
     21          1           0        3.608441    1.064963    0.340924
     22          1           0        3.546471    0.558039   -1.344395
     23          1           0        2.243847   -1.485604   -0.676187
     24          1           0        2.301706   -0.965659    1.001042
     25          1           0        1.057786    1.119365    0.400428
     26          1           0        1.000810    0.606372   -1.277009
     27          1           0       -0.298332   -1.430765   -0.608984
     28          1           0       -0.246516   -0.911948    1.067142
     29          1           0       -1.492451    1.174271    0.459635
     30          1           0       -1.543965    0.656062   -1.216122
     31          1           0       -2.845099   -1.377669   -0.547338
     32          1           0       -2.793264   -0.859534    1.128620
     33          1           0       -4.039562    1.227232    0.521880
     34          1           0       -4.092262    0.708670   -1.153686
     35          1           0       -5.392948   -1.324945   -0.483118
     36          1           0       -5.340069   -0.805994    1.192475
     37          1           0       -6.587687    1.280781    0.585043
     38          1           0       -6.641551    0.760761   -1.089951
     39          1           0       -7.939163   -1.270631   -0.415997
     40          1           0       -7.886134   -0.749210    1.257320
     41          1           0      -10.069652   -0.109696    0.210382
     42          1           0       -9.159260    1.337816    0.652309
     43          1           0       -9.214406    0.810863   -1.030852
 ---------------------------------------------------------------------

 SCF Done:  E(RM062X) =  -985.490079189     A.U. after    1 cycles

 The electronic state is 1-A.
 Alpha  occ. eigenvalues --  -89.99414 -19.57402 -10.57170 -10.56938 -10.54426
 Alpha  occ. eigenvalues --  -10.53909 -10.53268 -10.53064 -10.52867 -10.52781
 Alpha  occ. eigenvalues --  -10.52770 -10.52703 -10.52657 -10.52596 -10.52055
 Alpha  occ. eigenvalues --   -8.35104  -6.27166  -6.27093  -6.26743  -1.12561
 Alpha  occ. eigenvalues --   -0.92792  -0.91478  -0.89881  -0.87908  -0.85708
 Alpha  occ. eigenvalues --   -0.82788  -0.79161  -0.75179  -0.71312  -0.68109
 Alpha  occ. eigenvalues --   -0.67279  -0.66350  -0.65718  -0.65427  -0.57305
 Alpha  occ. eigenvalues --   -0.56005  -0.54562  -0.53819  -0.52909  -0.51976
 Alpha  occ. eigenvalues --   -0.51155  -0.50146  -0.49462  -0.48920  -0.47859
 Alpha  occ. eigenvalues --   -0.47488  -0.46200  -0.46195  -0.43852  -0.43706
 Alpha  occ. eigenvalues --   -0.43573  -0.42204  -0.41549  -0.40829  -0.39913
 Alpha  occ. eigenvalues --   -0.39475  -0.39197  -0.38784  -0.38601  -0.38208
 Alpha  occ. eigenvalues --   -0.38088  -0.37901  -0.35148  -0.32950  -0.29178
 Alpha virt. eigenvalues --   -0.00787  -0.00123   0.00428   0.00570   0.00804
 Alpha virt. eigenvalues --    0.01277   0.01432   0.01898   0.02443   0.02664
 Alpha virt. eigenvalues --    0.03165   0.03681   0.03882   0.04152   0.04448

 Mulliken charges:
               1
     1  O   -0.454084
     2  S    0.685940
     3  C   -0.718939
     4  C   -0.792104
     5  C   -0.250016
     6  C   -0.139886
     7  C   -0.242573
     8  C   -0.308278
     9  C   -0.351875
    10  C   -0.273693
    11  C   -0.201762
    12  C   -0.206255
    13  C   -0.328270
    14  C   -0.202193
    15  C   -0.646364
    16  H    0.153249
    17  H    0.218452
    18  H    0.196193
    19  H    0.163917
    20  H    0.280743
    21  H    0.191564
    22  H    0.159853
    23  H    0.147375
    24  H    0.136513
    25  H    0.155142
    26  H    0.142321
    27  H    0.144091
    28  H    0.145081
    29  H    0.146731
    30  H    0.144228
    31  H    0.142686
    32  H    0.143614
    33  H    0.143854
    34  H    0.142879
    35  H    0.142208
    36  H    0.142720
    37  H    0.141744
    38  H    0.141350
    39  H    0.146591
    40  H    0.146877
    41  H    0.174921
    42  H    0.147855
    43  H    0.147601
 Sum of Mulliken charges =  -0.00000

 Dipole moment (field-independent basis, Debye):
    X=             -0.6294    Y=             -4.0209    Z=             -1.4945  Tot=              4.3356
 Quadrupole moment (field-independent basis, Debye-Ang):
   XX=           -108.1414   YY=           -112.4551   ZZ=           -107.3162
   XY=            -25.2835   XZ=             -9.2358   YZ=             -2.2644

  Exact polarizability: 241.959  -3.635 163.062   1.782  -0.360 147.797
 Approx polarizability: 207.290  -0.713 214.709   1.239   4.431 199.917

                      1                      2                      3
                      A                      A                      A
 Frequencies --     15.7714                24.7473                30.6425
 Red. masses --      4.1274                 3.9683                 2.0936
 Frc consts  --      0.0006                 0.0014                 0.0012
 IR Inten    --      0.3645                 0.5566                 3.9027

                      4                      5                      6
                      A                      A                      A
 Frequencies --     42.2318                65.1009                68.2571
 Red. masses --      3.7924                 1.7540                 3.2604
 Frc consts  --      0.0040                 0.0044                 0.0089
 IR Inten    --      1.0039                 0.8628                 1.6018

                      7                      8                      9
                      A                      A                      A
 Frequencies --     75.6323               100.9583               112.9242
 Red. masses --      3.3174                 1.6387                 2.8267
 Frc consts  --      0.0112                 0.0098                 0.0212
 IR Inten    --      1.0661                 0.2452                 1.1952

                     10                     11                     12
                      A                      A                      A
 Frequencies --    124.4581               135.9817               145.0258
 Red. masses --      3.6104                 1.8015                 2.8199
 Frc consts  --      0.0330                 0.0196                 0.0349
 IR Inten    --      1.0732                 0.1150                 0.0184

                     13                     14                     15
                      A                      A                      A
 Frequencies --    152.8417               165.5317               170.8053
 Red. masses --      2.9528                 1.9700                 2.0740
 Frc consts  --      0.0406                 0.0318                 0.0357
 IR Inten    --      1.0491                 0.0704                 0.1985

                     16                     17                     18
                      A                      A                      A
 Frequencies --    192.9561               201.7336               245.8579
 Red. masses --      2.5160                 1.2161                 1.1273
 Frc consts  --      0.0552                 0.0292                 0.0401
 IR Inten    --      1.3416                 0.4157                 0.0006

                     19                     20                     21
                      A                      A                      A
 Frequencies --    265.3096               275.8224               330.3438
 Red. masses --      3.3114                 3.8208                 3.8281
 Frc consts  --      0.1373                 0.1713                 0.2461
 IR Inten    --      0.5991                 2.8984                 7.7421

                     22                     23                     24
                      A                      A                      A
 Frequencies --    352.1964               371.3950               428.5274
 Red. masses --      3.6170                 3.2740                 3.8672
 Frc consts  --      0.2643                 0.2661                 0.4184
 IR Inten    --      3.5559                 7.1407                 2.1335

                     25                     26                     27
                      A                      A                      A
 Frequencies --    440.7081               509.5503               511.8762
 Red. masses --      3.0213                 3.0938                 2.9866
 Frc consts  --      0.3457                 0.4733                 0.4611
 IR Inten    --      1.1916                 0.0314                 0.4487

                     28                     29                     30
                      A                      A                      A
 Frequencies --    700.3519               727.3310               728.0899
 Red. masses --      4.5819                 2.8847                 1.0598
 Frc consts  --      1.3241                 0.8991                 0.3310
 IR Inten    --     14.1040                 3.4978                 4.3754

                     31                     32                     33
                      A                      A                      A
 Frequencies --    728.9333               733.3553               743.5564
 Red. masses --      1.1143                 1.0771                 1.1208
 Frc consts  --      0.3488                 0.3413                 0.3651
 IR Inten    --      2.1409                 4.2314                 0.9096

                     34                     35                     36
                      A                      A                      A
 Frequencies --    763.0157               796.3251               841.4404
 Red. masses --      1.1675                 1.2142                 1.2513
 Frc consts  --      0.4005                 0.4537                 0.5220
 IR Inten    --      1.9707                 0.4527                 0.7282

                     37                     38                     39
                      A                      A                      A
 Frequencies --    894.1741               909.7234               946.6940
 Red. masses --      1.2660                 1.8058                 1.2596
 Frc consts  --      0.5964                 0.8805                 0.6651
 IR Inten    --      0.3667                 2.3559                 0.3498

                     40                     41                     42
                      A                      A                      A
 Frequencies --    956.1401               966.2720              1003.5475
 Red. masses --      1.4759                 1.3805                 1.2840
 Frc consts  --      0.7950                 0.7594                 0.7619
 IR Inten    --     10.2088                10.2846                 6.3396

                     43                     44                     45
                      A                      A                      A
 Frequencies --   1011.3962              1018.0965              1040.6851
 Red. masses --      4.2283                 4.0886                 2.6161
 Frc consts  --      2.5484                 2.4969                 1.6694
 IR Inten    --      0.1004                 1.4797                15.9686

                     46                     47                     48
                      A                      A                      A
 Frequencies --   1046.5803              1057.4226              1060.7897
 Red. masses --      1.5957                 2.4823                 2.8542
 Frc consts  --      1.0298                 1.6353                 1.8923
 IR Inten    --     15.6370                31.3003                46.2271

                     49                     50                     51
                      A                      A                      A
 Frequencies --   1071.3091              1087.1279              1089.8700
 Red. masses --      2.9421                 2.4076                 1.9512
 Frc consts  --      1.9894                 1.6765                 1.3655
 IR Inten    --      5.4224                 3.2191                 0.0366

                     52                     53                     54
                      A                      A                      A
 Frequencies --   1093.2507              1093.6446              1103.2503
 Red. masses --      2.0903                 2.0016                 1.3396
 Frc consts  --      1.4720                 1.4105                 0.9607
 IR Inten    --      0.3693                 0.0258                15.2353

                     55                     56                     57
                      A                      A                      A
 Frequencies --   1112.3867              1155.9352              1206.3459
 Red. masses --      2.7826                 3.0623                 1.8898
 Frc consts  --      2.0287                 2.4108                 1.6204
 IR Inten    --      2.4054                 3.6786                 0.1066

                     58                     59                     60
                      A                      A                      A
 Frequencies --   1213.3351              1227.1693              1239.5740
 Red. masses --      1.2801                 1.5904                 1.3298
 Frc consts  --      1.1103                 1.4112                 1.2038
 IR Inten    --      1.4069                 0.0338                 0.2043

                     61                     62                     63
                      A                      A                      A
 Frequencies --   1256.2601              1267.9912              1286.2159
 Red. masses --      1.4115                 1.3131                 1.3061
 Frc consts  --      1.3125                 1.2439                 1.2731
 IR Inten    --      0.0525                 0.7086                 0.0981

                     64                     65                     66
                      A                      A                      A
 Frequencies --   1298.9176              1312.3598              1323.2309
 Red. masses --      1.3131                 1.2264                 1.0182
 Frc consts  --      1.3053                 1.2444                 1.0504
 IR Inten    --      0.3488                 0.0096                 0.1100

                     67                     68                     69
                      A                      A                      A
 Frequencies --   1329.1284              1330.1046              1334.2913
 Red. masses --      1.1012                 1.2996                 1.1159
 Frc consts  --      1.1462                 1.3546                 1.1705
 IR Inten    --      0.3213                 1.6088                 0.0454

                     70                     71                     72
                      A                      A                      A
 Frequencies --   1339.1485              1340.5234              1344.9680
 Red. masses --      1.0744                 1.2175                 1.1164
 Frc consts  --      1.1352                 1.2890                 1.1899
 IR Inten    --      0.2866                 5.1372                 0.0454

                     73                     74                     75
                      A                      A                      A
 Frequencies --   1346.2542              1361.9530              1386.8348
 Red. masses --      1.0987                 1.3988                 1.4726
 Frc consts  --      1.1733                 1.5287                 1.6688
 IR Inten    --      0.2168                 0.2493                 1.2479

                     76                     77                     78
                      A                      A                      A
 Frequencies --   1404.0978              1412.9045              1414.5131
 Red. masses --      1.5602                 1.7237                 1.5223
 Frc consts  --      1.8123                 2.0274                 1.7946
 IR Inten    --      0.2645                 2.0577                 0.8134

                     79                     80                     81
                      A                      A                      A
 Frequencies --   1416.1746              1417.6463              1447.2820
 Red. masses --      1.7518                 1.5484                 1.0700
 Frc consts  --      2.0700                 1.8334                 1.3205
 IR Inten    --      0.7895                 1.3392                 6.5171

                     82                     83                     84
                      A                      A                      A
 Frequencies --   1456.8641              1470.7883              1485.4133
 Red. masses --      1.0911                 1.0506                 1.0786
 Frc consts  --      1.3645                 1.3391                 1.4022
 IR Inten    --      6.0985                13.7347                 0.0221

                     85                     86                     87
                      A                      A                      A
 Frequencies --   1485.5212              1488.6814              1489.1836
 Red. masses --      1.0790                 1.0769                 1.0782
 Frc consts  --      1.4029                 1.4061                 1.4088
 IR Inten    --      0.0065                 0.0467                 0.0825

                     88                     89                     90
                      A                      A                      A
 Frequencies --   1491.6182              1494.7412              1499.7959
 Red. masses --      1.0741                 1.0814                 1.0856
 Frc consts  --      1.4080                 1.4236                 1.4387
 IR Inten    --      0.5090                 0.0437                 0.9446

                     91                     92                     93
                      A                      A                      A
 Frequencies --   1504.4188              1505.2465              1510.2404
 Red. masses --      1.0415                 1.0888                 1.0944
 Frc consts  --      1.3889                 1.4535                 1.4707
 IR Inten    --      8.4623                 0.8722                 1.4043

                     94                     95                     96
                      A                      A                      A
 Frequencies --   1514.0296              1515.8834              3029.4237
 Red. masses --      1.0948                 1.0969                 1.0585
 Frc consts  --      1.4786                 1.4851                 5.7236
 IR Inten    --      0.5038                26.3766                 0.3822

                     97                     98                     99
                      A                      A                      A
 Frequencies --   3030.0676              3031.1058              3032.8090
 Red. masses --      1.0586                 1.0591                 1.0591
 Frc consts  --      5.7263                 5.7333                 5.7396
 IR Inten    --      0.0399                 0.0174                 2.7575

                    100                    101                    102
                      A                      A                      A
 Frequencies --   3034.1797              3037.8428              3042.6215
 Red. masses --      1.0593                 1.0598                 1.0600
 Frc consts  --      5.7457                 5.7624                 5.7815
 IR Inten    --      1.5694                 3.5207                 3.9670

                    103                    104                    105
                      A                      A                      A
 Frequencies --   3046.6286              3049.6631              3053.4975
 Red. masses --      1.0601                 1.0595                 1.0629
 Frc consts  --      5.7972                 5.8058                 5.8390
 IR Inten    --     86.5741                92.5803                14.2486

                    106                    107                    108
                      A                      A                      A
 Frequencies --   3054.3591              3056.3120              3056.4417
 Red. masses --      1.0996                 1.0996                 1.0363
 Frc consts  --      6.0440                 6.0517                 5.7041
 IR Inten    --      0.6080                 0.9201                42.5759

                    109                    110                    111
                      A                      A                      A
 Frequencies --   3059.8822              3062.2112              3065.5679
 Red. masses --      1.0981                 1.0661                 1.0957
 Frc consts  --      6.0574                 5.8901                 6.0666
 IR Inten    --      0.1779                18.9414                 7.2020

                    112                    113                    114
                      A                      A                      A
 Frequencies --   3070.9806              3072.0336              3079.6328
 Red. masses --      1.1025                 1.0299                 1.1051
 Frc consts  --      6.1262                 5.7266                 6.1754
 IR Inten    --      1.1289                 5.9815                 0.8675

                    115                    116                    117
                      A                      A                      A
 Frequencies --   3087.5221              3093.7476              3098.3386
 Red. masses --      1.1056                 1.1055                 1.1052
 Frc consts  --      6.2097                 6.2343                 6.2512
 IR Inten    --      3.2752                 1.1677               154.5516

                    118                    119                    120
                      A                      A                      A
 Frequencies --   3106.5015              3125.6095              3129.8823
 Red. masses --      1.1043                 1.1029                 1.1083
 Frc consts  --      6.2787                 6.3481                 6.3968
 IR Inten    --     29.5460                48.4125                15.1582

                    121                    122                    123
                      A                      A                      A
 Frequencies --   3133.5719              3176.4120              3184.9990
 Red. masses --      1.1018                 1.1074                 1.1053
 Frc consts  --      6.3742                 6.5830                 6.6059
 IR Inten    --     31.9726                 2.1215                 0.6925

 - Thermochemistry -
 -------------------
 Temperature     0.001 Kelvin.  Pressure   1.00000 Atm.
 Atom     1 has atomic number  8 and mass  15.99491

 Molecular mass:   232.18609 amu.
 Principal axes and moments of inertia in atomic units:
                           1         2         3
     Eigenvalues --   518.65540********************
           X            0.99998  -0.00600   0.00067
           Y            0.00602   0.99905  -0.04316
           Z           -0.00042   0.04316   0.99907
 This molecule is an asymmetric top.
 Rotational symmetry number  1.
 Warning -- assumption of classical behavior for rotation
           may cause significant error
 Rotational temperatures (Kelvin)      0.16700     0.00351     0.00348
 Rotational constants (GHZ):           3.47965     0.07315     0.07243
 Zero-point vibrational energy    1036620.3 (Joules/Mol)
                                  247.75819 (Kcal/Mol)
 Vibrational temperatures:     22.69    35.61    44.09    60.76    93.67
          (Kelvin)             98.21   108.82   145.26   162.47   179.07
                              195.65   208.66   219.91   238.16   245.75
                              277.62   290.25   353.73   381.72   396.85
                              475.29   506.73   534.35   616.56   634.08
                              733.13   736.48  1007.65  1046.47  1047.56
                             1048.77  1055.13  1069.81  1097.81  1145.73
                             1210.65  1286.52  1308.89  1362.08  1375.67
                             1390.25  1443.88  1455.17  1464.81  1497.31
                             1505.80  1521.40  1526.24  1541.37  1564.13
                             1568.08  1572.94  1573.51  1587.33  1600.48
                             1663.13  1735.66  1745.72  1765.62  1783.47
                             1807.48  1824.36  1850.58  1868.85  1888.19
                             1903.83  1912.32  1913.72  1919.75  1926.74
                             1928.71  1935.11  1936.96  1959.55  1995.35
                             2020.18  2032.85  2035.17  2037.56  2039.68
                             2082.32  2096.10  2116.14  2137.18  2137.33
                             2141.88  2142.60  2146.11  2150.60  2157.87
                             2164.52  2165.71  2172.90  2178.35  2181.02
                             4358.67  4359.59  4361.09  4363.54  4365.51
                             4370.78  4377.65  4383.42  4387.79  4393.30
                             4394.54  4397.35  4397.54  4402.49  4405.84
                             4410.67  4418.46  4419.97  4430.90  4442.26
                             4451.21  4457.82  4469.56  4497.05  4503.20
                             4508.51  4570.15  4582.50

 Zero-point correction=                           0.394828 (Hartree/Particle)
 Thermal correction to Energy=                    0.394828
 Thermal correction to Enthalpy=                  0.394828
 Thermal correction to Gibbs Free Energy=         0.394828
 Sum of electronic and zero-point Energies=           -985.095251
 Sum of electronic and thermal Energies=              -985.095251
 Sum of electronic and thermal Enthalpies=            -985.095251
 Sum of electronic and thermal Free Energies=         -985.095251

                     E (Thermal)             CV                S
                      KCal/Mol        Cal/Mol-Kelvin    Cal/Mol-Kelvin
 Total                  247.758              5.962            -23.847
 Electronic               0.000              0.000              0.000
 Translational            0.000              2.981            -20.395
 Rotational               0.000              2.981             -3.453
 Vibrational            247.758              0.000              0.000

 Optimization completed.
    -- Stationary point found.
 Normal termination of Gaussian 16 at Sun Oct 13 23:57:23 2019.
