 Gaussian 16, Revision A.03,
 Gaussian 16:  ES64L-G16RevA.03 25-Dec-2016

 -------------------------------------------------------------------
 #P opt freq m062x/6-311++g(d,p) geom=connectivity temperature=0.001
 -------------------------------------------------------------------

 -------------------
 Title Card Required
 -------------------
 Symbolic Z-matrix:
 Charge =  1 Multiplicity = 1

 SCF Done:  E(RM062X) =  -985.783396423     A.U. after   16 cycles
 SCF Done:  E(RM062X) =  -985.815669470     A.U. after   11 cycles
 SCF Done:  E(RM062X) =  -985.844463648     A.U. after   12 cycles
 SCF Done:  E(RM062X) =  -985.847142831     A.U. after   11 cycles
 SCF Done:  E(RM062X) =  -985.848158079     A.U. after   12 cycles
 SCF Done:  E(RM062X) =  -985.849303089     A.U. after   12 cycles
 SCF Done:  E(RM062X) =  -985.849612930     A.U. after   12 cycles
 SCF Done:  E(RM062X) =  -985.850681550     A.U. after   12 cycles
 SCF Done:  E(RM062X) =  -985.852637210     A.U. after   12 cycles
 SCF Done:  E(RM062X) =  -985.852447395     A.U. after   12 cycles
 SCF Done:  E(RM062X) =  -985.853163619     A.U. after   12 cycles
 SCF Done:  E(RM062X) =  -985.853311246     A.U. after   10 cycles
 SCF Done:  E(RM062X) =  -985.853374772     A.U. after   11 cycles
 SCF Done:  E(RM062X) =  -985.853377524     A.U. after   10 cycles
 SCF Done:  E(RM062X) =  -985.853394525     A.U. after   10 cycles
 SCF Done:  E(RM062X) =  -985.853396629     A.U. after    9 cycles
 SCF Done:  E(RM062X) =  -985.853397007     A.U. after    9 cycles
 SCF Done:  E(RM062X) =  -985.853397639     A.U. after    8 cycles
 SCF Done:  E(RM062X) =  -985.853397696     A.U. after    7 cycles
 Optimization completed.
    -- Stationary point found.
 Normal termination of Gaussian 16 at Sun Oct 13 23:46:06 2019.

 ----------------------------------------------------------------------
 #P Geom=AllCheck Guess=TCheck SCRF=Check GenChk RM062X/6-311++G(d,p) F
 req
 ----------------------------------------------------------------------

 Structure from the checkpoint file:  "36_p.chk"
 -------------------
 Title Card Required
 -------------------
 Charge =  1 Multiplicity = 1

                         Standard orientation:
 ---------------------------------------------------------------------
 Center     Atomic      Atomic             Coordinates (Angstroms)
 Number     Number       Type             X           Y           Z
 ---------------------------------------------------------------------
      1          8           0        6.210053    1.382173    0.754353
      2         16           0        6.238815    0.249816   -0.411557
      3          6           0        7.514860   -0.817392    0.253643
      4          6           0        4.723351   -0.652964   -0.010300
      5          6           0        3.493469    0.202880   -0.289369
      6          6           0        2.218209   -0.584797    0.028784
      7          6           0        0.959724    0.244031   -0.222903
      8          6           0       -0.320769   -0.532213    0.077415
      9          6           0       -1.582402    0.291478   -0.170933
     10          6           0       -2.865223   -0.483282    0.121548
     11          6           0       -4.127812    0.339604   -0.123357
     12          6           0       -5.411557   -0.434877    0.165599
     13          6           0       -6.674532    0.387444   -0.077873
     14          6           0       -7.959579   -0.385932    0.209912
     15          6           0       -9.213266    0.448953   -0.037791
     16          1           0        7.291740   -1.013439    1.301884
     17          1           0        7.510166   -1.734020   -0.338209
     18          1           0        8.466731   -0.301130    0.139381
     19          1           0        4.760041   -1.543484   -0.646168
     20          1           0        4.807076   -0.943018    1.040382
     21          1           0        3.527465    1.103704    0.329791
     22          1           0        3.482000    0.512174   -1.339188
     23          1           0        2.187313   -1.492290   -0.584064
     24          1           0        2.239844   -0.907317    1.075455
     25          1           0        0.990274    1.148653    0.395134
     26          1           0        0.946123    0.577395   -1.266934
     27          1           0       -0.350565   -1.437062   -0.540788
     28          1           0       -0.306165   -0.868696    1.120657
     29          1           0       -1.554668    1.194734    0.450006
     30          1           0       -1.594444    0.632369   -1.212985
     31          1           0       -2.894032   -1.385557   -0.500891
     32          1           0       -2.852587   -0.826796    1.162803
     33          1           0       -4.100259    1.240998    0.500536
     34          1           0       -4.139652    0.685234   -1.163995
     35          1           0       -5.439825   -1.335905   -0.458880
     36          1           0       -5.399800   -0.781502    1.205959
     37          1           0       -6.647797    1.288552    0.546839
     38          1           0       -6.687328    0.734967   -1.118088
     39          1           0       -7.985242   -1.285325   -0.414684
     40          1           0       -7.945589   -0.732119    1.248976
     41          1           0      -10.121328   -0.118237    0.173999
     42          1           0       -9.219183    1.339654    0.595699
     43          1           0       -9.260642    0.781097   -1.078044
     44          1           0        6.262022    2.274332    0.379257
 ---------------------------------------------------------------------

 SCF Done:  E(RM062X) =  -985.853397696     A.U. after    1 cycles

 The electronic state is 1-A.
 Alpha  occ. eigenvalues --  -90.21738 -19.87417 -10.76267 -10.76134 -10.69740
 Alpha  occ. eigenvalues --  -10.66205 -10.63548 -10.61661 -10.60282 -10.59216
 Alpha  occ. eigenvalues --  -10.58400 -10.57743 -10.57213 -10.56978 -10.55949
 Alpha  occ. eigenvalues --   -8.57644  -6.49800  -6.49478  -6.49193  -1.40208
 Alpha  occ. eigenvalues --   -1.13670  -1.05583  -1.00270  -0.97284  -0.95242
 Alpha  occ. eigenvalues --   -0.93126  -0.90608  -0.87504  -0.83945  -0.81891
 Alpha  occ. eigenvalues --   -0.80314  -0.76963  -0.74000  -0.73564  -0.72501
 Alpha  occ. eigenvalues --   -0.71624  -0.71615  -0.70227  -0.69089  -0.67664
 Alpha  occ. eigenvalues --   -0.65403  -0.63336  -0.62052  -0.61186  -0.59911
 Alpha  occ. eigenvalues --   -0.58637  -0.57627  -0.56672  -0.56177  -0.55033
 Alpha  occ. eigenvalues --   -0.54664  -0.52468  -0.52412  -0.52106  -0.49868
 Alpha  occ. eigenvalues --   -0.49758  -0.47511  -0.47270  -0.46668  -0.45460
 Alpha  occ. eigenvalues --   -0.44950  -0.43752  -0.43090  -0.42485  -0.40880
 Alpha virt. eigenvalues --   -0.18478  -0.13791  -0.13267  -0.11260  -0.10589
 Alpha virt. eigenvalues --   -0.09480  -0.09331  -0.07792  -0.07707  -0.07132
 Alpha virt. eigenvalues --   -0.06604  -0.05898  -0.05332  -0.04713  -0.04390

 Mulliken charges:
               1
     1  O   -0.231410
     2  S    0.721309
     3  C   -0.650370
     4  C   -0.655789
     5  C   -0.256229
     6  C   -0.363627
     7  C   -0.205295
     8  C   -0.346915
     9  C   -0.343253
    10  C   -0.266918
    11  C   -0.199465
    12  C   -0.218038
    13  C   -0.341794
    14  C   -0.207900
    15  C   -0.640678
    16  H    0.240914
    17  H    0.225129
    18  H    0.273994
    19  H    0.270037
    20  H    0.291285
    21  H    0.192431
    22  H    0.181440
    23  H    0.167809
    24  H    0.164535
    25  H    0.156403
    26  H    0.155622
    27  H    0.154535
    28  H    0.152787
    29  H    0.150361
    30  H    0.149385
    31  H    0.147841
    32  H    0.147918
    33  H    0.145981
    34  H    0.146115
    35  H    0.145081
    36  H    0.145164
    37  H    0.142877
    38  H    0.142992
    39  H    0.148342
    40  H    0.148229
    41  H    0.180714
    42  H    0.148642
    43  H    0.148784
    44  H    0.341022
 Sum of Mulliken charges =   1.00000

 Dipole moment (field-independent basis, Debye):
    X=             26.3400    Y=             -0.1332    Z=             -0.8004  Tot=             26.3525
 Quadrupole moment (field-independent basis, Debye-Ang):
   XX=             79.0313   YY=            -94.4463   ZZ=           -102.8798
   XY=             -0.0386   XZ=             -4.4388   YZ=              0.1046

  Exact polarizability: 241.176  -2.722 156.865   1.286  -1.320 140.793
 Approx polarizability: 207.006  -0.040 204.325   0.641   1.255 191.838

                      1                      2                      3
                      A                      A                      A
 Frequencies --     15.0891                20.8515                25.1242
 Red. masses --      3.5780                 2.1329                 4.0270
 Frc consts  --      0.0005                 0.0005                 0.0015
 IR Inten    --      0.8435                 0.2217                 1.1734

                      4                      5                      6
                      A                      A                      A
 Frequencies --     42.8289                56.1607                66.9155
 Red. masses --      3.7612                 1.5954                 3.6945
 Frc consts  --      0.0041                 0.0030                 0.0097
 IR Inten    --      0.0368                 0.3063                 0.1140

                      7                      8                      9
                      A                      A                      A
 Frequencies --     77.1925                94.1277               111.5922
 Red. masses --      3.2716                 1.6310                 2.8303
 Frc consts  --      0.0115                 0.0085                 0.0208
 IR Inten    --      0.0699                 0.6438                 0.4586

                     10                     11                     12
                      A                      A                      A
 Frequencies --    123.7023               130.5942               142.6730
 Red. masses --      3.2919                 1.8149                 2.9613
 Frc consts  --      0.0297                 0.0182                 0.0355
 IR Inten    --      0.1422                 0.8529                 0.5338

                     13                     14                     15
                      A                      A                      A
 Frequencies --    149.1464               162.1636               168.4562
 Red. masses --      2.6976                 1.9783                 2.0257
 Frc consts  --      0.0354                 0.0307                 0.0339
 IR Inten    --      0.0202                 0.9594                 0.0823

                     16                     17                     18
                      A                      A                      A
 Frequencies --    177.7194               191.7479               218.1621
 Red. masses --      1.2060                 2.8734                 2.0879
 Frc consts  --      0.0224                 0.0622                 0.0585
 IR Inten    --      1.7971                 0.1141                99.3724

                     19                     20                     21
                      A                      A                      A
 Frequencies --    246.2659               262.4892               285.6960
 Red. masses --      1.1251                 3.2563                 2.6748
 Frc consts  --      0.0402                 0.1322                 0.1286
 IR Inten    --      0.0006                 2.0757                23.0426

                     22                     23                     24
                      A                      A                      A
 Frequencies --    324.2509               346.8546               362.4288
 Red. masses --      2.9790                 2.7965                 2.1453
 Frc consts  --      0.1845                 0.1982                 0.1660
 IR Inten    --      6.0205                 1.5907                13.6129

                     25                     26                     27
                      A                      A                      A
 Frequencies --    425.0940               437.4101               507.7805
 Red. masses --      3.5918                 2.9837                 3.1004
 Frc consts  --      0.3824                 0.3363                 0.4710
 IR Inten    --      0.2432                 1.7020                 0.3922

                     28                     29                     30
                      A                      A                      A
 Frequencies --    511.1515               705.7351               721.1042
 Red. masses --      2.9822                 4.7574                 4.3810
 Frc consts  --      0.4591                 1.3961                 1.3422
 IR Inten    --      0.1301                 3.9559                 0.0721

                     31                     32                     33
                      A                      A                      A
 Frequencies --    727.2922               728.5548               733.8157
 Red. masses --      1.0599                 1.0697                 1.0761
 Frc consts  --      0.3303                 0.3345                 0.3414
 IR Inten    --      4.6648                 1.5302                 5.0803

                     34                     35                     36
                      A                      A                      A
 Frequencies --    743.0790               760.6134               793.9361
 Red. masses --      1.1165                 1.1679                 1.2128
 Frc consts  --      0.3632                 0.3981                 0.4504
 IR Inten    --      1.1050                 1.1931                 0.4899

                     37                     38                     39
                      A                      A                      A
 Frequencies --    838.7728               846.1966               896.1491
 Red. masses --      1.7141                 3.2118                 1.2659
 Frc consts  --      0.7105                 1.3550                 0.5990
 IR Inten    --     18.6520                49.1538                 0.0322

                     40                     41                     42
                      A                      A                      A
 Frequencies --    911.0150               952.4425               990.7333
 Red. masses --      1.8069                 1.2500                 1.6400
 Frc consts  --      0.8835                 0.6681                 0.9484
 IR Inten    --      1.9868                 0.1754                 8.9513

                     43                     44                     45
                      A                      A                      A
 Frequencies --    996.3152              1007.5538              1009.4991
 Red. masses --      1.3308                 1.2369                 4.7903
 Frc consts  --      0.7783                 0.7398                 2.8762
 IR Inten    --      3.9560                 0.4611                 0.6499

                     46                     47                     48
                      A                      A                      A
 Frequencies --   1020.7483              1036.0590              1050.7439
 Red. masses --      2.9061                 3.5872                 1.1053
 Frc consts  --      1.7840                 2.2687                 0.7190
 IR Inten    --      5.0295                 2.7106                 0.2506

                     49                     50                     51
                      A                      A                      A
 Frequencies --   1057.2631              1064.6027              1078.1367
 Red. masses --      3.0901                 2.7540                 2.5241
 Frc consts  --      2.0351                 1.8390                 1.7286
 IR Inten    --      0.6843                 0.9696                 0.0213

                     52                     53                     54
                      A                      A                      A
 Frequencies --   1088.2813              1092.1102              1093.0625
 Red. masses --      2.1284                 2.0295                 2.0873
 Frc consts  --      1.4852                 1.4262                 1.4694
 IR Inten    --      0.2874                 0.0170                 0.0641

                     55                     56                     57
                      A                      A                      A
 Frequencies --   1110.7767              1115.9210              1156.4493
 Red. masses --      1.8611                 1.4294                 3.2040
 Frc consts  --      1.3529                 1.0488                 2.5246
 IR Inten    --      2.9709                 8.5067                 8.6006

                     58                     59                     60
                      A                      A                      A
 Frequencies --   1192.8425              1206.4655              1219.6062
 Red. masses --      1.2158                 1.8051                 1.2751
 Frc consts  --      1.0193                 1.5480                 1.1175
 IR Inten    --     76.6911                 4.1753                 2.4305

                     61                     62                     63
                      A                      A                      A
 Frequencies --   1228.4876              1247.2589              1257.6829
 Red. masses --      1.5381                 1.2939                 1.3835
 Frc consts  --      1.3676                 1.1860                 1.2893
 IR Inten    --      1.5139                 0.9518                 0.4090

                     64                     65                     66
                      A                      A                      A
 Frequencies --   1274.3770              1287.2428              1303.6135
 Red. masses --      1.2882                 1.2895                 1.2948
 Frc consts  --      1.2327                 1.2589                 1.2964
 IR Inten    --      2.3559                 0.3145                 1.6721

                     67                     68                     69
                      A                      A                      A
 Frequencies --   1312.9764              1324.8021              1329.7343
 Red. masses --      1.2167                 1.0195                 1.1058
 Frc consts  --      1.2358                 1.0542                 1.1520
 IR Inten    --      0.4397                 0.8764                 0.0062

                     70                     71                     72
                      A                      A                      A
 Frequencies --   1333.3652              1336.0179              1340.3484
 Red. masses --      1.3028                 1.1019                 1.0825
 Frc consts  --      1.3646                 1.1588                 1.1459
 IR Inten    --      4.2597                 0.5259                 0.6621

                     73                     74                     75
                      A                      A                      A
 Frequencies --   1346.7394              1348.1430              1358.8216
 Red. masses --      1.1093                 1.0965                 1.3354
 Frc consts  --      1.1854                 1.1742                 1.4528
 IR Inten    --      0.1236                 0.0069                 3.7757

                     76                     77                     78
                      A                      A                      A
 Frequencies --   1371.1326              1383.7326              1399.2795
 Red. masses --      1.2167                 1.4111                 1.5219
 Frc consts  --      1.3477                 1.5919                 1.7557
 IR Inten    --      2.2608                 3.3039                 0.4325

                     79                     80                     81
                      A                      A                      A
 Frequencies --   1410.3623              1414.7560              1415.8793
 Red. masses --      1.6539                 1.6412                 1.7596
 Frc consts  --      1.9383                 1.9354                 2.0784
 IR Inten    --      0.2381                 1.7414                 0.4543

                     82                     83                     84
                      A                      A                      A
 Frequencies --   1418.6960              1439.3794              1448.9948
 Red. masses --      1.3918                 1.0723                 1.0617
 Frc consts  --      1.6504                 1.3090                 1.3133
 IR Inten    --      2.5464                13.4547                13.1002

                     85                     86                     87
                      A                      A                      A
 Frequencies --   1458.2636              1484.8509              1484.9534
 Red. masses --      1.0460                 1.0788                 1.0788
 Frc consts  --      1.3105                 1.4014                 1.4015
 IR Inten    --     22.0218                 0.2252                 0.0021

                     88                     89                     90
                      A                      A                      A
 Frequencies --   1488.0458              1488.4990              1490.9704
 Red. masses --      1.0764                 1.0782                 1.0725
 Frc consts  --      1.4043                 1.4074                 1.4048
 IR Inten    --      0.9401                 0.0142                 5.0871

                     91                     92                     93
                      A                      A                      A
 Frequencies --   1493.8089              1498.7542              1504.1539
 Red. masses --      1.0810                 1.0854                 1.0915
 Frc consts  --      1.4213                 1.4365                 1.4550
 IR Inten    --      0.1504                 1.8222                 0.4677

                     94                     95                     96
                      A                      A                      A
 Frequencies --   1505.2794              1509.2485              1513.2006
 Red. masses --      1.0395                 1.0960                 1.0965
 Frc consts  --      1.3878                 1.4710                 1.4793
 IR Inten    --      9.4531                 1.9561                 1.7967

                     97                     98                     99
                      A                      A                      A
 Frequencies --   1515.2865              3031.0699              3032.1916
 Red. masses --      1.0967                 1.0587                 1.0587
 Frc consts  --      1.4837                 5.7309                 5.7353
 IR Inten    --     26.5143                 0.5083                 0.2621

                    100                    101                    102
                      A                      A                      A
 Frequencies --   3033.9010              3036.3539              3039.3852
 Red. masses --      1.0591                 1.0591                 1.0594
 Frc consts  --      5.7434                 5.7531                 5.7659
 IR Inten    --      0.7890                 0.9728                 1.9599

                    103                    104                    105
                      A                      A                      A
 Frequencies --   3043.2789              3047.2464              3050.9065
 Red. masses --      1.0595                 1.0595                 1.0595
 Frc consts  --      5.7815                 5.7964                 5.8103
 IR Inten    --      5.2144                26.8087                40.7124

                    106                    107                    108
                      A                      A                      A
 Frequencies --   3052.3338              3056.7055              3058.7823
 Red. masses --      1.0592                 1.1001                 1.0365
 Frc consts  --      5.8142                 6.0563                 5.7137
 IR Inten    --     96.1986                 0.0584                38.3935

                    109                    110                    111
                      A                      A                      A
 Frequencies --   3059.9832              3063.6722              3064.7536
 Red. masses --      1.1009                 1.0593                 1.1019
 Frc consts  --      6.0736                 5.8583                 6.0979
 IR Inten    --      0.0383                19.1742                 0.1819

                    112                    113                    114
                      A                      A                      A
 Frequencies --   3070.7785              3072.5505              3077.9836
 Red. masses --      1.1026                 1.0581                 1.1044
 Frc consts  --      6.1257                 5.8856                 6.1646
 IR Inten    --      0.0963                 5.2623                 0.1164

                    115                    116                    117
                      A                      A                      A
 Frequencies --   3079.2024              3085.4877              3092.2085
 Red. masses --      1.0289                 1.1056                 1.1060
 Frc consts  --      5.7477                 6.2012                 6.2305
 IR Inten    --      8.7429                 0.0505                 2.5408

                    118                    119                    120
                      A                      A                      A
 Frequencies --   3097.8105              3102.9439              3118.1202
 Red. masses --      1.1059                 1.1058                 1.1068
 Frc consts  --      6.2526                 6.2729                 6.3405
 IR Inten    --     37.8063               107.1890                23.4448

                    121                    122                    123
                      A                      A                      A
 Frequencies --   3127.7518              3137.8910              3142.0177
 Red. masses --      1.1030                 1.1017                 1.1090
 Frc consts  --      6.3573                 6.3914                 6.4507
 IR Inten    --     45.3140                27.4981                 0.0456

                    124                    125                    126
                      A                      A                      A
 Frequencies --   3186.0201              3198.8303              3808.3374
 Red. masses --      1.1072                 1.1097                 1.0683
 Frc consts  --      6.6217                 6.6904                 9.1284
 IR Inten    --      8.6659                 9.0088               267.4619

 - Thermochemistry -
 -------------------
 Temperature     0.001 Kelvin.  Pressure   1.00000 Atm.
 Atom     1 has atomic number  8 and mass  15.99491

 Molecular mass:   233.19391 amu.
 Principal axes and moments of inertia in atomic units:
                           1         2         3
     Eigenvalues --   519.92427********************
           X            0.99999  -0.00373   0.00114
           Y            0.00377   0.99932  -0.03660
           Z           -0.00101   0.03661   0.99933
 This molecule is an asymmetric top.
 Rotational symmetry number  1.
 Warning -- assumption of classical behavior for rotation
           may cause significant error
 Rotational temperatures (Kelvin)      0.16659     0.00348     0.00345
 Rotational constants (GHZ):           3.47116     0.07250     0.07183
 Zero-point vibrational energy    1067458.8 (Joules/Mol)
                                  255.12879 (Kcal/Mol)
 Vibrational temperatures:     21.71    30.00    36.15    61.62    80.80
          (Kelvin)             96.28   111.06   135.43   160.56   177.98
                              187.90   205.27   214.59   233.32   242.37
                              255.70   275.88   313.89   354.32   377.66
                              411.05   466.52   499.05   521.45   611.62
                              629.34   730.58   735.43  1015.40  1037.51
                             1046.41  1048.23  1055.80  1069.12  1094.35
                             1142.30  1206.81  1217.49  1289.36  1310.75
                             1370.35  1425.44  1433.48  1449.65  1452.44
                             1468.63  1490.66  1511.79  1521.17  1531.73
                             1551.20  1565.79  1571.30  1572.67  1598.16
                             1605.56  1663.87  1716.23  1735.83  1754.74
                             1767.52  1794.53  1809.53  1833.54  1852.06
                             1875.61  1889.08  1906.09  1913.19  1918.42
                             1922.23  1928.46  1937.66  1939.68  1955.04
                             1972.75  1990.88  2013.25  2029.20  2035.52
                             2037.13  2041.19  2070.95  2084.78  2098.12
                             2136.37  2136.52  2140.97  2141.62  2145.17
                             2149.26  2156.37  2164.14  2165.76  2171.47
                             2177.16  2180.16  4361.03  4362.65  4365.11
                             4368.64  4373.00  4378.60  4384.31  4389.57
                             4391.63  4397.92  4400.91  4402.63  4407.94
                             4409.50  4418.17  4420.71  4428.53  4430.29
                             4439.33  4449.00  4457.06  4464.44  4486.28
                             4500.14  4514.73  4520.66  4583.97  4602.40
                             5479.35

 Zero-point correction=                           0.406574 (Hartree/Particle)
 Thermal correction to Energy=                    0.406574
 Thermal correction to Enthalpy=                  0.406574
 Thermal correction to Gibbs Free Energy=         0.406574
 Sum of electronic and zero-point Energies=           -985.446824
 Sum of electronic and thermal Energies=              -985.446824
 Sum of electronic and thermal Enthalpies=            -985.446824
 Sum of electronic and thermal Free Energies=         -985.446824

                     E (Thermal)             CV                S
                      KCal/Mol        Cal/Mol-Kelvin    Cal/Mol-Kelvin
 Total                  255.129              5.962            -23.815
 Electronic               0.000              0.000              0.000
 Translational            0.000              2.981            -20.382
 Rotational               0.000              2.981             -3.433
 Vibrational            255.129              0.000              0.000

 Optimization completed.
    -- Stationary point found.
 Normal termination of Gaussian 16 at Mon Oct 14 00:02:15 2019.
