 Gaussian 16, Revision A.03,
 Gaussian 16:  ES64L-G16RevA.03 25-Dec-2016

 -------------------------------------------------------------------
 #p opt freq m062x/6-311++g(d,p) geom=connectivity temperature=0.001
 -------------------------------------------------------------------

 -------------------
 Title Card Required
 -------------------
 Symbolic Z-matrix:
 Charge =  1 Multiplicity = 1

 SCF Done:  E(RM062X) =  -323.722272227     A.U. after   13 cycles
 SCF Done:  E(RM062X) =  -323.748428883     A.U. after   13 cycles
 SCF Done:  E(RM062X) =  -323.755653495     A.U. after   12 cycles
 SCF Done:  E(RM062X) =  -323.756513062     A.U. after   12 cycles
 SCF Done:  E(RM062X) =  -323.756756070     A.U. after   12 cycles
 SCF Done:  E(RM062X) =  -323.756841004     A.U. after   11 cycles
 SCF Done:  E(RM062X) =  -323.756925520     A.U. after   11 cycles
 SCF Done:  E(RM062X) =  -323.756998164     A.U. after   11 cycles
 SCF Done:  E(RM062X) =  -323.757059928     A.U. after   11 cycles
 SCF Done:  E(RM062X) =  -323.757073908     A.U. after   11 cycles
 SCF Done:  E(RM062X) =  -323.757075328     A.U. after    8 cycles
 SCF Done:  E(RM062X) =  -323.757075468     A.U. after    8 cycles
 Optimization completed.
    -- Stationary point found.
 Normal termination of Gaussian 16 at Mon Oct 14 10:45:47 2019.

 ----------------------------------------------------------------------
 #P Geom=AllCheck Guess=TCheck SCRF=Check GenChk RM062X/6-311++G(d,p) F
 req
 ----------------------------------------------------------------------

 Structure from the checkpoint file:  "3_p.chk"
 -------------------
 Title Card Required
 -------------------
 Charge =  1 Multiplicity = 1

                         Standard orientation:
 ---------------------------------------------------------------------
 Center     Atomic      Atomic             Coordinates (Angstroms)
 Number     Number       Type             X           Y           Z
 ---------------------------------------------------------------------
      1          8           0       -2.231074   -0.000027   -0.101535
      2          7           0       -0.865434    0.000003    0.008324
      3          6           0       -0.233483   -1.186575   -0.008276
      4          6           0        1.145759   -1.205617    0.003832
      5          6           0        1.842338   -0.000004    0.012233
      6          6           0        1.145805    1.205602    0.003832
      7          6           0       -0.233469    1.186589   -0.008263
      8          1           0       -0.872090   -2.059842   -0.037143
      9          1           0        1.657680   -2.158473   -0.003837
     10          1           0        2.925643   -0.000037    0.016320
     11          1           0        1.657731    2.158456   -0.003910
     12          1           0       -0.872083    2.059846   -0.037229
     13          1           0       -2.591953    0.000275    0.799658
 ---------------------------------------------------------------------

 SCF Done:  E(RM062X) =  -323.757075468     A.U. after    1 cycles

 The electronic state is 1-A.
 Alpha  occ. eigenvalues --  -19.89075 -15.10736 -10.81302 -10.81299 -10.77112
 Alpha  occ. eigenvalues --  -10.76292 -10.76288  -1.47350  -1.26976  -1.11751
 Alpha  occ. eigenvalues --   -1.10526  -0.96443  -0.94570  -0.88150  -0.80877
 Alpha  occ. eigenvalues --   -0.79309  -0.77457  -0.74162  -0.72630  -0.67517
 Alpha  occ. eigenvalues --   -0.64982  -0.64426  -0.62080  -0.56236  -0.53856
 Alpha virt. eigenvalues --   -0.22924  -0.19383  -0.14535  -0.12422  -0.10930
 Alpha virt. eigenvalues --   -0.09661  -0.08616  -0.08227  -0.08049  -0.06194
 Alpha virt. eigenvalues --   -0.05574  -0.04844  -0.03577  -0.03573  -0.02533

 Mulliken charges:
               1
     1  O   -0.014224
     2  N   -0.072726
     3  C   -0.286479
     4  C    0.025754
     5  C   -0.145312
     6  C    0.025708
     7  C   -0.286423
     8  H    0.278568
     9  H    0.293330
    10  H    0.276192
    11  H    0.293331
    12  H    0.278563
    13  H    0.333719
 Sum of Mulliken charges =   1.00000

 Dipole moment (field-independent basis, Debye):
    X=              0.5206    Y=              0.0006    Z=              1.6093  Tot=              1.6914
 Quadrupole moment (field-independent basis, Debye-Ang):
   XX=            -22.6839   YY=            -25.5376   ZZ=            -39.7707
   XY=             -0.0017   XZ=             -4.8943   YZ=              0.0002

  Exact polarizability:  76.543  -0.001  68.644  -1.003   0.000  34.255
 Approx polarizability:  97.892  -0.001  91.360  -0.639   0.001  44.589

                      1                      2                      3
                      A                      A                      A
 Frequencies --    211.5221               227.0380               412.3914
 Red. masses --      1.1709                 4.1617                 2.8161
 Frc consts  --      0.0309                 0.1264                 0.2822
 IR Inten    --    127.1637                 4.2660                 3.3496

                      4                      5                      6
                      A                      A                      A
 Frequencies --    447.1560               464.6672               546.1594
 Red. masses --      4.1446                 3.4585                 7.2702
 Frc consts  --      0.4883                 0.4400                 1.2777
 IR Inten    --      0.0060                13.5212                 0.7733

                      7                      8                      9
                      A                      A                      A
 Frequencies --    651.5818               667.1946               790.3851
 Red. masses --      6.3236                 2.6620                 1.3527
 Frc consts  --      1.5818                 0.6982                 0.4979
 IR Inten    --      0.0047                38.8519                68.5177

                     10                     11                     12
                      A                      A                      A
 Frequencies --    841.4545               874.2172               974.8390
 Red. masses --      5.9679                 1.2570                 1.2741
 Frc consts  --      2.4896                 0.5660                 0.7134
 IR Inten    --      9.8833                 0.3380                 1.6913

                     13                     14                     15
                      A                      A                      A
 Frequencies --   1010.3124              1044.9924              1051.2808
 Red. masses --      1.3620                 1.3271                 4.6959
 Frc consts  --      0.8191                 0.8538                 3.0578
 IR Inten    --      0.0299                 0.5442                 0.1642

                     16                     17                     18
                      A                      A                      A
 Frequencies --   1079.2706              1124.7276              1192.0607
 Red. masses --      2.1511                 1.4788                 1.1287
 Frc consts  --      1.4763                 1.1022                 0.9450
 IR Inten    --      2.5911                 3.6685                 5.2323

                     19                     20                     21
                      A                      A                      A
 Frequencies --   1216.5822              1250.4312              1310.8383
 Red. masses --      1.1641                 3.8585                 6.2460
 Frc consts  --      1.0152                 3.5546                 6.3234
 IR Inten    --      0.4302                23.1161                25.8567

                     22                     23                     24
                      A                      A                      A
 Frequencies --   1368.6325              1407.4856              1527.8297
 Red. masses --      1.2561                 1.2042                 2.4889
 Frc consts  --      1.3863                 1.4056                 3.4230
 IR Inten    --      1.0534                83.0444                43.9124

                     25                     26                     27
                      A                      A                      A
 Frequencies --   1534.6655              1653.8581              1690.5258
 Red. masses --      2.3268                 6.7849                 5.4421
 Frc consts  --      3.2287                10.9343                 9.1634
 IR Inten    --     16.7707                 2.2401                20.2376

                     28                     29                     30
                      A                      A                      A
 Frequencies --   3229.8014              3245.0099              3246.0090
 Red. masses --      1.0925                 1.0924                 1.0954
 Frc consts  --      6.7148                 6.7775                 6.8001
 IR Inten    --      0.7275                 1.6972                29.1023

                     31                     32                     33
                      A                      A                      A
 Frequencies --   3253.7062              3256.3017              3770.0436
 Red. masses --      1.0994                 1.1020                 1.0686
 Frc consts  --      6.8574                 6.8847                 8.9483
 IR Inten    --     55.5537                 0.1962               192.5267

 - Thermochemistry -
 -------------------
 Temperature     0.001 Kelvin.  Pressure   1.00000 Atm.
 Atom     1 has atomic number  8 and mass  15.99491

 Molecular mass:    96.04494 amu.
 Principal axes and moments of inertia in atomic units:
                           1         2         3
     Eigenvalues --   312.14619 667.41771 973.91209
           X            0.99995  -0.00001  -0.01048
           Y            0.00001   1.00000  -0.00000
           Z            0.01048   0.00000   0.99995
 This molecule is an asymmetric top.
 Rotational symmetry number  1.
 Rotational temperatures (Kelvin)      0.27748     0.12977     0.08893
 Rotational constants (GHZ):           5.78172     2.70407     1.85308
 Zero-point vibrational energy     278568.2 (Joules/Mol)
                                   66.57941 (Kcal/Mol)
 Vibrational temperatures:    304.33   326.66   593.34   643.36   668.55
          (Kelvin)            785.80   937.48   959.94  1137.19  1210.67
                             1257.80  1402.58  1453.61  1503.51  1512.56
                             1552.83  1618.23  1715.11  1750.39  1799.09
                             1886.00  1969.16  2025.06  2198.21  2208.04
                             2379.53  2432.29  4646.96  4668.85  4670.28
                             4681.36  4685.09  5424.25

 Zero-point correction=                           0.106101 (Hartree/Particle)
 Thermal correction to Energy=                    0.106101
 Thermal correction to Enthalpy=                  0.106101
 Thermal correction to Gibbs Free Energy=         0.106101
 Sum of electronic and zero-point Energies=           -323.650974
 Sum of electronic and thermal Energies=              -323.650974
 Sum of electronic and thermal Enthalpies=            -323.650974
 Sum of electronic and thermal Free Energies=         -323.650974

                     E (Thermal)             CV                S
                      KCal/Mol        Cal/Mol-Kelvin    Cal/Mol-Kelvin
 Total                   66.579              5.962            -33.791
 Electronic               0.000              0.000              0.000
 Translational            0.000              2.981            -23.026
 Rotational               0.000              2.981            -10.765
 Vibrational             66.579              0.000              0.000

 Optimization completed.
    -- Stationary point found.
 Normal termination of Gaussian 16 at Mon Oct 14 10:46:32 2019.
