 Gaussian 16, Revision A.03,
 Gaussian 16:  ES64L-G16RevA.03 25-Dec-2016

 -------------------------------------------------------------------
 #P opt freq m062x/6-311++g(d,p) geom=connectivity temperature=0.001
 -------------------------------------------------------------------

 -------------------
 Title Card Required
 -------------------
 Symbolic Z-matrix:
 Charge =  0 Multiplicity = 1

 SCF Done:  E(RM062X) =  -477.006758427     A.U. after   16 cycles
 SCF Done:  E(RM062X) =  -477.014552271     A.U. after   15 cycles
 SCF Done:  E(RM062X) =  -477.015370476     A.U. after   14 cycles
 SCF Done:  E(RM062X) =  -477.015461046     A.U. after   13 cycles
 SCF Done:  E(RM062X) =  -477.015466723     A.U. after   11 cycles
 Optimization completed.
    -- Stationary point found.
 Normal termination of Gaussian 16 at Sun Oct 13 23:40:13 2019.

 ----------------------------------------------------------------------
 #P Geom=AllCheck Guess=TCheck SCRF=Check GenChk RM062X/6-311++G(d,p) F
 req
 ----------------------------------------------------------------------

 Structure from the checkpoint file:  "4.chk"
 -------------------
 Title Card Required
 -------------------
 Charge =  0 Multiplicity = 1

                         Standard orientation:
 ---------------------------------------------------------------------
 Center     Atomic      Atomic             Coordinates (Angstroms)
 Number     Number       Type             X           Y           Z
 ---------------------------------------------------------------------
      1          8           0       -1.706769    1.986498   -0.000000
      2          7           0       -1.361636    0.764697   -0.000000
      3          6           0       -2.273264   -0.216292   -0.000000
      4          6           0       -1.909707   -1.570359   -0.000000
      5          6           0       -0.593041   -1.939582   -0.000000
      6          6           0        0.395085   -0.924780    0.000000
      7          6           0        0.000000    0.430460    0.000000
      8          6           0        0.945581    1.472845    0.000000
      9          6           0        2.280663    1.160207    0.000000
     10          6           0        2.704444   -0.188603    0.000000
     11          6           0        1.785721   -1.204125    0.000000
     12          1           0       -3.293690    0.137824   -0.000000
     13          1           0       -2.702785   -2.306595   -0.000000
     14          1           0       -0.295493   -2.980751   -0.000000
     15          1           0        0.579885    2.490205    0.000000
     16          1           0        3.018322    1.953222    0.000000
     17          1           0        3.763437   -0.416595    0.000000
     18          1           0        2.103039   -2.240801    0.000000
 ---------------------------------------------------------------------

 SCF Done:  E(RM062X) =  -477.015466723     A.U. after    1 cycles

 The electronic state is 1-A'.
 Alpha  occ. eigenvalues --  -19.59552 -14.90611 -10.60445 -10.59678 -10.58196
 Alpha  occ. eigenvalues --  -10.57430 -10.57013 -10.56697 -10.56482 -10.56346
 Alpha  occ. eigenvalues --  -10.56045  -1.24174  -1.02453  -0.96982  -0.91347
 Alpha  occ. eigenvalues --   -0.88041  -0.85605  -0.75972  -0.74782  -0.70057
 Alpha  occ. eigenvalues --   -0.63864  -0.61590  -0.60489  -0.56321  -0.55326
 Alpha  occ. eigenvalues --   -0.54269  -0.52459  -0.51970  -0.49679  -0.46979
 Alpha  occ. eigenvalues --   -0.45951  -0.43551  -0.42182  -0.40846  -0.33477
 Alpha  occ. eigenvalues --   -0.33161  -0.32685  -0.26600
 Alpha virt. eigenvalues --   -0.04719  -0.01096  -0.00799   0.00161   0.01101
 Alpha virt. eigenvalues --    0.02300   0.02334   0.02764   0.04621   0.04763
 Alpha virt. eigenvalues --    0.04995   0.05837   0.07676   0.08446   0.09100

 Mulliken charges:
               1
     1  O   -0.120798
     2  N    0.058855
     3  C    0.063232
     4  C   -0.513355
     5  C    0.613186
     6  C    2.178273
     7  C   -2.425953
     8  C   -0.745944
     9  C   -0.198990
    10  C   -0.353687
    11  C   -0.106781
    12  H    0.246383
    13  H    0.235702
    14  H    0.205963
    15  H    0.265879
    16  H    0.217512
    17  H    0.204646
    18  H    0.175876
 Sum of Mulliken charges =  -0.00000

 Dipole moment (field-independent basis, Debye):
    X=              1.8574    Y=             -3.8329    Z=             -0.0000  Tot=              4.2592
 Quadrupole moment (field-independent basis, Debye-Ang):
   XX=            -55.0629   YY=            -63.2777   ZZ=            -68.2585
   XY=              8.6729   XZ=             -0.0000   YZ=             -0.0000

  Exact polarizability: 154.131   4.010 135.905   0.000   0.000  58.186
 Approx polarizability: 199.003   0.650 202.076   0.000  -0.000  78.578

                      1                      2                      3
                     A"                     A"                     A"
 Frequencies --    133.2785               177.0936               259.0457
 Red. masses --      4.8696                 4.0551                 4.3707
 Frc consts  --      0.0510                 0.0749                 0.1728
 IR Inten    --      5.6092                 1.1213                 0.0025

                      4                      5                      6
                     A'                     A"                     A"
 Frequencies --    327.4508               425.3051               460.3159
 Red. masses --      6.0646                 3.2525                 3.5496
 Frc consts  --      0.3831                 0.3466                 0.4431
 IR Inten    --      8.5881                 4.2519                 0.0284

                      7                      8                      9
                     A'                     A'                     A'
 Frequencies --    491.9783               498.5839               565.3155
 Red. masses --      5.9319                 7.7510                 6.7887
 Frc consts  --      0.8459                 1.1352                 1.2783
 IR Inten    --      1.5889                 3.6231                 2.8228

                     10                     11                     12
                     A"                     A'                     A"
 Frequencies --    577.8373               597.8476               637.9688
 Red. masses --      3.5062                 7.0076                 3.6875
 Frc consts  --      0.6898                 1.4757                 0.8843
 IR Inten    --      7.6031                 4.3096                 0.9693

                     13                     14                     15
                     A"                     A'                     A"
 Frequencies --    722.1083               750.6179               769.9499
 Red. masses --      2.9219                 5.8746                 1.5200
 Frc consts  --      0.8977                 1.9501                 0.5309
 IR Inten    --      2.1140                 4.9599                 1.8649

                     16                     17                     18
                     A"                     A'                     A"
 Frequencies --    806.4447               807.2589               878.2218
 Red. masses --      1.3477                 5.5726                 1.3443
 Frc consts  --      0.5164                 2.1396                 0.6109
 IR Inten    --    133.7318                16.6878                 0.0952

                     19                     20                     21
                     A"                     A'                     A"
 Frequencies --    899.1019               902.9554               976.1294
 Red. masses --      1.4135                 4.6081                 1.2554
 Frc consts  --      0.6732                 2.2136                 0.7048
 IR Inten    --      0.0058                17.3727                 0.0015

                     22                     23                     24
                     A"                     A"                     A'
 Frequencies --   1002.3037              1022.5207              1048.0998
 Red. masses --      1.3375                 1.2881                 2.3698
 Frc consts  --      0.7917                 0.7935                 1.5338
 IR Inten    --      2.0287                 0.6581                 7.0438

                     25                     26                     27
                     A'                     A'                     A'
 Frequencies --   1082.5971              1121.1264              1158.1691
 Red. masses --      2.2081                 1.7799                 1.5153
 Frc consts  --      1.5248                 1.3182                 1.1975
 IR Inten    --      2.9209                11.3621                20.6774

                     28                     29                     30
                     A'                     A'                     A'
 Frequencies --   1169.7891              1213.1811              1232.3070
 Red. masses --      1.1484                 1.5114                 2.0155
 Frc consts  --      0.9259                 1.3106                 1.8033
 IR Inten    --      0.3605                13.5992                 3.1505

                     31                     32                     33
                     A'                     A'                     A'
 Frequencies --   1271.7484              1313.5901              1359.6367
 Red. masses --      1.6872                 2.7054                 2.5590
 Frc consts  --      1.6078                 2.7504                 2.7872
 IR Inten    --     30.8730                48.2980                98.9542

                     34                     35                     36
                     A'                     A'                     A'
 Frequencies --   1421.3259              1440.8544              1483.5152
 Red. masses --      7.6758                 2.9665                 2.1623
 Frc consts  --      9.1362                 3.6286                 2.8038
 IR Inten    --      9.1023               157.2833                 5.1168

                     37                     38                     39
                     A'                     A'                     A'
 Frequencies --   1490.5102              1570.4411              1643.2914
 Red. masses --      2.5546                 4.0532                 6.0789
 Frc consts  --      3.3438                 5.8897                 9.6717
 IR Inten    --     24.0051                21.9555                49.3256

                     40                     41                     42
                     A'                     A'                     A'
 Frequencies --   1666.6759              1697.5810              3204.9045
 Red. masses --      6.8728                 6.7802                 1.0873
 Frc consts  --     11.2483                11.5121                 6.5799
 IR Inten    --     11.9545                 2.3855                 0.1964

                     43                     44                     45
                     A'                     A'                     A'
 Frequencies --   3217.3129              3221.7151              3228.6765
 Red. masses --      1.0920                 1.0885                 1.0963
 Frc consts  --      6.6598                 6.6568                 6.7336
 IR Inten    --      7.8360                 0.1545                 5.1399

                     46                     47                     48
                     A'                     A'                     A'
 Frequencies --   3238.1082              3255.7131              3266.3783
 Red. masses --      1.0963                 1.0944                 1.0943
 Frc consts  --      6.7729                 6.8348                 6.8788
 IR Inten    --      2.6109                 7.2225                 1.8535

 - Thermochemistry -
 -------------------
 Temperature     0.001 Kelvin.  Pressure   1.00000 Atm.
 Atom     1 has atomic number  8 and mass  15.99491

 Molecular mass:   145.05276 amu.
 Principal axes and moments of inertia in atomic units:
                           1         2         3
     Eigenvalues --   887.155611537.113452424.26906
           X            0.99928  -0.03788   0.00000
           Y            0.03788   0.99928   0.00000
           Z            0.00000  -0.00000   1.00000
 This molecule is an asymmetric top.
 Rotational symmetry number  1.
 Warning -- assumption of classical behavior for rotation
           may cause significant error
 Rotational temperatures (Kelvin)      0.09763     0.05635     0.03573
 Rotational constants (GHZ):           2.03430     1.17411     0.74445
 Zero-point vibrational energy     369089.1 (Joules/Mol)
                                   88.21442 (Kcal/Mol)
 Vibrational temperatures:    191.76   254.80   372.71   471.13   611.92
          (Kelvin)            662.29   707.85   717.35   813.36   831.38
                              860.17   917.89  1038.95  1079.97  1107.79
                             1160.29  1161.47  1263.57  1293.61  1299.15
                             1404.43  1442.09  1471.18  1507.98  1557.62
                             1613.05  1666.35  1683.07  1745.50  1773.01
                             1829.76  1889.96  1956.21  2044.97  2073.07
                             2134.45  2144.51  2259.51  2364.33  2397.97
                             2442.44  4611.14  4629.00  4635.33  4645.35
                             4658.92  4684.25  4699.59

 Zero-point correction=                           0.140579 (Hartree/Particle)
 Thermal correction to Energy=                    0.140579
 Thermal correction to Enthalpy=                  0.140579
 Thermal correction to Gibbs Free Energy=         0.140579
 Sum of electronic and zero-point Energies=           -476.874888
 Sum of electronic and thermal Energies=              -476.874888
 Sum of electronic and thermal Enthalpies=            -476.874888
 Sum of electronic and thermal Free Energies=         -476.874888

                     E (Thermal)             CV                S
                      KCal/Mol        Cal/Mol-Kelvin    Cal/Mol-Kelvin
 Total                   88.214              5.962            -29.789
 Electronic               0.000              0.000              0.000
 Translational            0.000              2.981            -21.797
 Rotational               0.000              2.981             -7.992
 Vibrational             88.214              0.000              0.000

 Optimization completed.
    -- Stationary point found.
 Normal termination of Gaussian 16 at Sun Oct 13 23:41:52 2019.
