 Gaussian 16, Revision A.03,
 Gaussian 16:  ES64L-G16RevA.03 25-Dec-2016

 -------------------------------------------------------------------
 #P opt freq m062x/6-311++g(d,p) geom=connectivity temperature=0.001
 -------------------------------------------------------------------

 -------------------
 Title Card Required
 -------------------
 Symbolic Z-matrix:
 Charge =  0 Multiplicity = 1

 SCF Done:  E(RM062X) =  -365.078292938     A.U. after   15 cycles
 SCF Done:  E(RM062X) =  -365.097956231     A.U. after   13 cycles
 SCF Done:  E(RM062X) =  -365.105059740     A.U. after   13 cycles
 SCF Done:  E(RM062X) =  -365.109405741     A.U. after   14 cycles
 SCF Done:  E(RM062X) =  -365.110595608     A.U. after   13 cycles
 SCF Done:  E(RM062X) =  -365.110752219     A.U. after   11 cycles
 SCF Done:  E(RM062X) =  -365.110949416     A.U. after   13 cycles
 SCF Done:  E(RM062X) =  -365.110807491     A.U. after   14 cycles
 SCF Done:  E(RM062X) =  -365.111420024     A.U. after   12 cycles
 SCF Done:  E(RM062X) =  -365.111670320     A.U. after   13 cycles
 SCF Done:  E(RM062X) =  -365.111833414     A.U. after   12 cycles
 SCF Done:  E(RM062X) =  -365.111839901     A.U. after   10 cycles
 SCF Done:  E(RM062X) =  -365.111841098     A.U. after   10 cycles
 SCF Done:  E(RM062X) =  -365.111841195     A.U. after   10 cycles
 SCF Done:  E(RM062X) =  -365.111841237     A.U. after    9 cycles
 Optimization completed.
    -- Stationary point found.
 Normal termination of Gaussian 16 at Sun Oct 13 23:50:49 2019.

 ----------------------------------------------------------------------
 #P Geom=AllCheck Guess=TCheck SCRF=Check GenChk RM062X/6-311++G(d,p) F
 req
 ----------------------------------------------------------------------

 Structure from the checkpoint file:  "5.chk"
 -------------------
 Title Card Required
 -------------------
 Charge =  0 Multiplicity = 1

                         Standard orientation:
 ---------------------------------------------------------------------
 Center     Atomic      Atomic             Coordinates (Angstroms)
 Number     Number       Type             X           Y           Z
 ---------------------------------------------------------------------
      1          6           0       -0.983404   -0.693000    1.413296
      2          6           0       -0.503022   -0.447041   -0.014405
      3          6           0       -1.650771   -0.488792   -1.006976
      4          6           0        0.699607   -1.315224   -0.402958
      5          6           0        1.936859   -0.480916   -0.013829
      6          6           0        1.395529    0.912737   -0.027696
      7          7           0        0.099761    0.941959   -0.031714
      8          8           0       -0.666524    1.940926    0.012862
      9          1           0       -1.495797   -1.655689    1.468089
     10          1           0       -0.143426   -0.704073    2.112667
     11          1           0       -1.676232    0.096400    1.708675
     12          1           0       -2.063362   -1.499759   -1.039508
     13          1           0       -2.430901    0.211335   -0.708634
     14          1           0       -1.305578   -0.217004   -2.006634
     15          1           0        0.670714   -2.287142    0.090667
     16          1           0        0.695740   -1.479324   -1.482713
     17          1           0        2.310553   -0.742226    0.982844
     18          1           0        2.764165   -0.615140   -0.712532
     19          1           0        1.939195    1.844917    0.021591
 ---------------------------------------------------------------------

 SCF Done:  E(RM062X) =  -365.111841237     A.U. after    1 cycles

 The electronic state is 1-A.
 Alpha  occ. eigenvalues --  -19.58699 -14.88031 -10.59711 -10.57855 -10.56251
 Alpha  occ. eigenvalues --  -10.55558 -10.53799 -10.53247  -1.22664  -1.01065
 Alpha  occ. eigenvalues --   -0.90842  -0.85332  -0.79505  -0.76144  -0.70501
 Alpha  occ. eigenvalues --   -0.61638  -0.57981  -0.57674  -0.54286  -0.52293
 Alpha  occ. eigenvalues --   -0.50596  -0.48920  -0.48090  -0.46042  -0.45077
 Alpha  occ. eigenvalues --   -0.43528  -0.43079  -0.40153  -0.39892  -0.31532
 Alpha  occ. eigenvalues --   -0.27233
 Alpha virt. eigenvalues --   -0.00824   0.00606   0.00939   0.01519   0.01762
 Alpha virt. eigenvalues --    0.03153   0.03367   0.03717   0.04584   0.05377
 Alpha virt. eigenvalues --    0.06673   0.06938   0.07500   0.08646   0.09446

 Mulliken charges:
               1
     1  C   -0.523235
     2  C   -0.219504
     3  C   -0.502801
     4  C   -0.270940
     5  C   -0.509500
     6  C    0.015013
     7  N    0.137549
     8  O   -0.172755
     9  H    0.170200
    10  H    0.166278
    11  H    0.202546
    12  H    0.163817
    13  H    0.200227
    14  H    0.169752
    15  H    0.182277
    16  H    0.204243
    17  H    0.174494
    18  H    0.192512
    19  H    0.219826
 Sum of Mulliken charges =  -0.00000

 Dipole moment (field-independent basis, Debye):
    X=              2.0427    Y=             -3.8418    Z=              0.0210  Tot=              4.3512
 Quadrupole moment (field-independent basis, Debye-Ang):
   XX=            -46.6634   YY=            -56.3902   ZZ=            -49.2080
   XY=              4.4042   XZ=             -0.1101   YZ=             -0.0299

  Exact polarizability:  95.654  -4.373  79.453  -0.257   0.027  67.581
 Approx polarizability: 119.624 -12.146  97.921  -0.679  -0.119  82.057

                      1                      2                      3
                      A                      A                      A
 Frequencies --    107.8917               219.9673               252.2548
 Red. masses --      2.7047                 1.0491                 2.7110
 Frc consts  --      0.0186                 0.0299                 0.1016
 IR Inten    --      2.4650                 0.0299                 1.3379

                      4                      5                      6
                      A                      A                      A
 Frequencies --    260.9801               264.5485               317.3438
 Red. masses --      2.3893                 1.0603                 2.8569
 Frc consts  --      0.0959                 0.0437                 0.1695
 IR Inten    --      0.2347                 1.2703                 5.1187

                      7                      8                      9
                      A                      A                      A
 Frequencies --    352.2710               384.4430               521.6783
 Red. masses --      2.5411                 2.1378                 3.2595
 Frc consts  --      0.1858                 0.1862                 0.5226
 IR Inten    --      4.7813                 0.0925                 6.2736

                     10                     11                     12
                      A                      A                      A
 Frequencies --    595.0766               666.3237               700.1104
 Red. masses --      3.9006                 2.8304                 3.2355
 Frc consts  --      0.8138                 0.7404                 0.9344
 IR Inten    --      9.7969                10.4740                 9.4949

                     13                     14                     15
                      A                      A                      A
 Frequencies --    738.3596               804.0461               831.5259
 Red. masses --      4.1640                 1.7743                 1.5569
 Frc consts  --      1.3375                 0.6758                 0.6343
 IR Inten    --      3.2258                11.2985                13.0468

                     16                     17                     18
                      A                      A                      A
 Frequencies --    915.3174               958.1086               963.9011
 Red. masses --      1.8977                 1.8412                 1.8827
 Frc consts  --      0.9368                 0.9958                 1.0306
 IR Inten    --      0.0749                 1.0306                 1.5541

                     19                     20                     21
                      A                      A                      A
 Frequencies --    985.6969              1006.3553              1038.6824
 Red. masses --      1.4751                 1.4955                 1.5106
 Frc consts  --      0.8444                 0.8924                 0.9602
 IR Inten    --      1.8115                 1.4348                 1.9287

                     22                     23                     24
                      A                      A                      A
 Frequencies --   1050.4104              1144.0046              1182.2154
 Red. masses --      1.5870                 1.3280                 1.7217
 Frc consts  --      1.0317                 1.0240                 1.4178
 IR Inten    --      6.4520                 5.8634                14.1195

                     25                     26                     27
                      A                      A                      A
 Frequencies --   1239.2164              1265.2734              1296.0620
 Red. masses --      1.5928                 1.8466                 2.5341
 Frc consts  --      1.4411                 1.7418                 2.5079
 IR Inten    --     13.8883                 1.4010                18.2660

                     28                     29                     30
                      A                      A                      A
 Frequencies --   1316.8606              1340.4517              1361.2825
 Red. masses --      1.6456                 1.9321                 3.6186
 Frc consts  --      1.6813                 2.0454                 3.9508
 IR Inten    --     32.3083                46.1559                88.8781

                     31                     32                     33
                      A                      A                      A
 Frequencies --   1378.3185              1403.2032              1423.0468
 Red. masses --      1.9167                 1.4012                 1.3427
 Frc consts  --      2.1454                 1.6255                 1.6021
 IR Inten    --      9.8625                22.2559                 3.7421

                     34                     35                     36
                      A                      A                      A
 Frequencies --   1476.0319              1488.9413              1493.7178
 Red. masses --      1.0503                 1.0666                 1.0619
 Frc consts  --      1.3481                 1.3932                 1.3960
 IR Inten    --      1.2958                 3.1408                 7.7819

                     37                     38                     39
                      A                      A                      A
 Frequencies --   1503.4063              1509.7186              1517.8907
 Red. masses --      1.0766                 1.1014                 1.0711
 Frc consts  --      1.4338                 1.4791                 1.4540
 IR Inten    --      5.3282                 8.2154                 7.1487

                     40                     41                     42
                      A                      A                      A
 Frequencies --   1687.6072              3047.9949              3062.0237
 Red. masses --      8.6076                 1.0703                 1.0350
 Frc consts  --     14.4435                 5.8585                 5.7176
 IR Inten    --    165.2835                24.7805                14.7595

                     43                     44                     45
                      A                      A                      A
 Frequencies --   3069.1010              3086.6576              3113.8783
 Red. masses --      1.0361                 1.0632                 1.0926
 Frc consts  --      5.7500                 5.9680                 6.2417
 IR Inten    --      8.3321                16.8928                16.4446

                     46                     47                     48
                      A                      A                      A
 Frequencies --   3137.9385              3141.2599              3144.4568
 Red. masses --      1.1026                 1.1050                 1.1031
 Frc consts  --      6.3967                 6.4244                 6.4265
 IR Inten    --     13.4972                 4.7210                24.7144

                     49                     50                     51
                      A                      A                      A
 Frequencies --   3155.1773              3165.6866              3261.4110
 Red. masses --      1.1033                 1.1021                 1.0940
 Frc consts  --      6.4713                 6.5072                 6.8563
 IR Inten    --      4.8726                 5.2003                 3.7568

 - Thermochemistry -
 -------------------
 Temperature     0.001 Kelvin.  Pressure   1.00000 Atm.
 Atom     1 has atomic number  6 and mass  12.00000

 Molecular mass:   113.08406 amu.
 Principal axes and moments of inertia in atomic units:
                           1         2         3
     Eigenvalues --   682.39022 789.555671064.21995
           X            0.99528   0.09697   0.00453
           Y           -0.09696   0.99529  -0.00241
           Z           -0.00474   0.00196   0.99999
 This molecule is an asymmetric top.
 Rotational symmetry number  1.
 Warning -- assumption of classical behavior for rotation
           may cause significant error
 Rotational temperatures (Kelvin)      0.12693     0.10970     0.08139
 Rotational constants (GHZ):           2.64473     2.28577     1.69583
 Zero-point vibrational energy     438719.2 (Joules/Mol)
                                  104.85641 (Kcal/Mol)
 Vibrational temperatures:    155.23   316.48   362.94   375.49   380.63
          (Kelvin)            456.59   506.84   553.13   750.58   856.18
                              958.69  1007.30  1062.33  1156.84  1196.38
                             1316.94  1378.50  1386.84  1418.20  1447.92
                             1494.43  1511.31  1645.97  1700.94  1782.96
                             1820.45  1864.74  1894.67  1928.61  1958.58
                             1983.09  2018.90  2047.45  2123.68  2142.25
                             2149.13  2163.07  2172.15  2183.91  2428.09
                             4385.38  4405.57  4415.75  4441.01  4480.18
                             4514.79  4519.57  4524.17  4539.60  4554.72
                             4692.44

 Zero-point correction=                           0.167099 (Hartree/Particle)
 Thermal correction to Energy=                    0.167099
 Thermal correction to Enthalpy=                  0.167099
 Thermal correction to Gibbs Free Energy=         0.167099
 Sum of electronic and zero-point Energies=           -364.944742
 Sum of electronic and thermal Energies=              -364.944742
 Sum of electronic and thermal Enthalpies=            -364.944742
 Sum of electronic and thermal Free Energies=         -364.944742

                     E (Thermal)             CV                S
                      KCal/Mol        Cal/Mol-Kelvin    Cal/Mol-Kelvin
 Total                  104.856              5.962            -32.272
 Electronic               0.000              0.000              0.000
 Translational            0.000              2.981            -22.539
 Rotational               0.000              2.981             -9.733
 Vibrational            104.856              0.000              0.000

 Optimization completed.
    -- Stationary point found.
 Normal termination of Gaussian 16 at Sun Oct 13 23:52:42 2019.
