 Gaussian 16, Revision A.03,
 Gaussian 16:  ES64L-G16RevA.03 25-Dec-2016

 -------------------------------------------------------------------
 #P opt freq m062x/6-311++g(d,p) geom=connectivity temperature=0.001
 -------------------------------------------------------------------

 -------------------
 Title Card Required
 -------------------
 Symbolic Z-matrix:
 Charge =  1 Multiplicity = 1

 SCF Done:  E(RM062X) =  -365.441480530     A.U. after   13 cycles
 SCF Done:  E(RM062X) =  -365.462496856     A.U. after   12 cycles
 SCF Done:  E(RM062X) =  -365.469499464     A.U. after   12 cycles
 SCF Done:  E(RM062X) =  -365.473772721     A.U. after   11 cycles
 SCF Done:  E(RM062X) =  -365.476397950     A.U. after   11 cycles
 SCF Done:  E(RM062X) =  -365.476633081     A.U. after   11 cycles
 SCF Done:  E(RM062X) =  -365.476716478     A.U. after   10 cycles
 SCF Done:  E(RM062X) =  -365.476811945     A.U. after   11 cycles
 SCF Done:  E(RM062X) =  -365.476834452     A.U. after   11 cycles
 SCF Done:  E(RM062X) =  -365.476898612     A.U. after   10 cycles
 SCF Done:  E(RM062X) =  -365.473786053     A.U. after   13 cycles
 SCF Done:  E(RM062X) =  -365.477868149     A.U. after   12 cycles
 SCF Done:  E(RM062X) =  -365.478308134     A.U. after   10 cycles
 SCF Done:  E(RM062X) =  -365.478400567     A.U. after   10 cycles
 SCF Done:  E(RM062X) =  -365.478522295     A.U. after   11 cycles
 SCF Done:  E(RM062X) =  -365.478569099     A.U. after   10 cycles
 SCF Done:  E(RM062X) =  -365.478602802     A.U. after   10 cycles
 SCF Done:  E(RM062X) =  -365.478605052     A.U. after    9 cycles
 SCF Done:  E(RM062X) =  -365.478605239     A.U. after    8 cycles
 Optimization completed.
    -- Stationary point found.
 Normal termination of Gaussian 16 at Sun Oct 13 23:55:04 2019.

 ----------------------------------------------------------------------
 #P Geom=AllCheck Guess=TCheck SCRF=Check GenChk RM062X/6-311++G(d,p) F
 req
 ----------------------------------------------------------------------

 Structure from the checkpoint file:  "5_p.chk"
 -------------------
 Title Card Required
 -------------------
 Charge =  1 Multiplicity = 1

                         Standard orientation:
 ---------------------------------------------------------------------
 Center     Atomic      Atomic             Coordinates (Angstroms)
 Number     Number       Type             X           Y           Z
 ---------------------------------------------------------------------
      1          6           0       -1.630747   -0.621284    1.003567
      2          6           0       -0.490727   -0.515456    0.002598
      3          6           0       -0.953499   -0.740863   -1.434186
      4          6           0        0.758729   -1.333387    0.383672
      5          6           0        1.966588   -0.440265    0.024932
      6          6           0        1.383753    0.928204    0.041817
      7          7           0        0.110203    0.872906    0.066894
      8          8           0       -0.647238    1.983210   -0.073707
      9          1           0       -1.944871   -1.665049    1.058141
     10          1           0       -1.319773   -0.314468    2.005143
     11          1           0       -2.506104   -0.046175    0.689364
     12          1           0       -1.411719   -1.728897   -1.500617
     13          1           0       -1.696321    0.001303   -1.730912
     14          1           0       -0.115933   -0.700729   -2.133865
     15          1           0        0.757515   -1.531414    1.456841
     16          1           0        0.775693   -2.286658   -0.141516
     17          1           0        2.804703   -0.526329    0.717001
     18          1           0        2.360110   -0.628970   -0.980627
     19          1           0        1.887169    1.888684    0.000398
     20          1           0       -1.388568    1.900986    0.547646
 ---------------------------------------------------------------------

 SCF Done:  E(RM062X) =  -365.478605239     A.U. after    1 cycles

 The electronic state is 1-A.
 Alpha  occ. eigenvalues --  -19.88762 -15.08473 -10.82052 -10.78556 -10.73926
 Alpha  occ. eigenvalues --  -10.72144 -10.70332 -10.69498  -1.46764  -1.25925
 Alpha  occ. eigenvalues --   -1.10113  -1.05437  -0.96112  -0.94782  -0.89804
 Alpha  occ. eigenvalues --   -0.88761  -0.80062  -0.78329  -0.73201  -0.72368
 Alpha  occ. eigenvalues --   -0.69955  -0.67583  -0.65896  -0.65164  -0.62321
 Alpha  occ. eigenvalues --   -0.61336  -0.61089  -0.60100  -0.58805  -0.57258
 Alpha  occ. eigenvalues --   -0.54280
 Alpha virt. eigenvalues --   -0.19850  -0.13820  -0.12063  -0.10606  -0.10396
 Alpha virt. eigenvalues --   -0.08523  -0.08210  -0.07928  -0.07621  -0.06654
 Alpha virt. eigenvalues --   -0.05960  -0.05199  -0.04407  -0.04094  -0.03244

 Mulliken charges:
               1
     1  C   -0.461091
     2  C   -0.593354
     3  C   -0.381763
     4  C   -0.197805
     5  C   -0.671576
     6  C    0.257826
     7  N    0.109364
     8  O    0.057760
     9  H    0.234152
    10  H    0.206071
    11  H    0.181399
    12  H    0.216862
    13  H    0.215016
    14  H    0.199723
    15  H    0.252138
    16  H    0.231503
    17  H    0.262656
    18  H    0.255857
    19  H    0.304742
    20  H    0.320523
 Sum of Mulliken charges =   1.00000

 Dipole moment (field-independent basis, Debye):
    X=              1.1799    Y=              0.1677    Z=              1.0163  Tot=              1.5663
 Quadrupole moment (field-independent basis, Debye-Ang):
   XX=            -31.8424   YY=            -39.9283   ZZ=            -43.8002
   XY=              0.6011   XZ=             -1.7051   YZ=              2.2312

  Exact polarizability:  86.143  -1.085  72.214  -0.402   0.005  62.997
 Approx polarizability: 102.366  -3.357  87.822  -0.514  -0.082  77.160

                      1                      2                      3
                      A                      A                      A
 Frequencies --    114.2493               216.3212               245.6419
 Red. masses --      2.5042                 1.9860                 1.1528
 Frc consts  --      0.0193                 0.0548                 0.0410
 IR Inten    --      0.5147                26.5284                 7.4735

                      4                      5                      6
                      A                      A                      A
 Frequencies --    251.3989               282.5698               286.9716
 Red. masses --      1.2958                 1.8622                 1.3530
 Frc consts  --      0.0483                 0.0876                 0.0657
 IR Inten    --     74.6203                 4.1995                41.9465

                      7                      8                      9
                      A                      A                      A
 Frequencies --    293.8530               344.7120               369.6207
 Red. masses --      1.8369                 2.3271                 2.1466
 Frc consts  --      0.0935                 0.1629                 0.1728
 IR Inten    --     10.4726                 0.4553                 3.9241

                     10                     11                     12
                      A                      A                      A
 Frequencies --    484.3321               579.1521               587.4043
 Red. masses --      2.7950                 3.7936                 3.7328
 Frc consts  --      0.3863                 0.7497                 0.7589
 IR Inten    --      7.4584                 1.8039                14.0995

                     13                     14                     15
                      A                      A                      A
 Frequencies --    694.8147               706.7409               785.6972
 Red. masses --      2.8555                 3.7671                 1.9668
 Frc consts  --      0.8122                 1.1086                 0.7154
 IR Inten    --      3.5448                 8.8970                 4.0389

                     16                     17                     18
                      A                      A                      A
 Frequencies --    890.6489               929.1022               947.3029
 Red. masses --      1.8728                 1.4344                 2.2857
 Frc consts  --      0.8753                 0.7295                 1.2085
 IR Inten    --      8.7798                 2.6276                 2.5399

                     19                     20                     21
                      A                      A                      A
 Frequencies --    960.2961               984.2297              1009.4833
 Red. masses --      1.4967                 1.6486                 1.3223
 Frc consts  --      0.8132                 0.9410                 0.7939
 IR Inten    --      3.0971                 9.2573                 3.1271

                     22                     23                     24
                      A                      A                      A
 Frequencies --   1031.1412              1049.0440              1150.4088
 Red. masses --      1.5933                 1.6551                 1.7519
 Frc consts  --      0.9981                 1.0731                 1.3660
 IR Inten    --      3.6224                 0.6739                16.8915

                     25                     26                     27
                      A                      A                      A
 Frequencies --   1174.5571              1223.3638              1248.0833
 Red. masses --      1.6940                 2.8858                 1.7653
 Frc consts  --      1.3769                 2.5446                 1.6202
 IR Inten    --     22.5757                43.9943                 7.1328

                     28                     29                     30
                      A                      A                      A
 Frequencies --   1265.3688              1298.5588              1310.4226
 Red. masses --      1.9855                 2.0868                 1.5929
 Frc consts  --      1.8730                 2.0733                 1.6116
 IR Inten    --      2.1800                 5.2226                21.6405

                     31                     32                     33
                      A                      A                      A
 Frequencies --   1349.0845              1366.3076              1413.2244
 Red. masses --      1.6062                 1.4969                 1.3150
 Frc consts  --      1.7224                 1.6464                 1.5474
 IR Inten    --     25.1352                21.0916                19.9380

                     34                     35                     36
                      A                      A                      A
 Frequencies --   1431.9325              1439.7112              1462.2139
 Red. masses --      1.2605                 1.5027                 1.0782
 Frc consts  --      1.5228                 1.8351                 1.3582
 IR Inten    --     27.4998                30.8833                26.6700

                     37                     38                     39
                      A                      A                      A
 Frequencies --   1480.9921              1490.0458              1503.1426
 Red. masses --      1.0487                 1.0532                 1.0744
 Frc consts  --      1.3552                 1.3777                 1.4302
 IR Inten    --      2.7021                 6.3736                23.8251

                     40                     41                     42
                      A                      A                      A
 Frequencies --   1508.1951              1514.5131              1782.6301
 Red. masses --      1.0755                 1.0626                 7.0656
 Frc consts  --      1.4414                 1.4360                13.2289
 IR Inten    --      4.0665                10.0955                12.8286

                     43                     44                     45
                      A                      A                      A
 Frequencies --   3061.0606              3068.1816              3072.1131
 Red. masses --      1.0372                 1.0694                 1.0359
 Frc consts  --      5.7263                 5.9312                 5.7603
 IR Inten    --      2.6917                 6.5928                 0.8512

                     46                     47                     48
                      A                      A                      A
 Frequencies --   3104.7713              3138.1076              3142.3176
 Red. masses --      1.0651                 1.1038                 1.0949
 Frc consts  --      6.0491                 6.4042                 6.3697
 IR Inten    --      2.2696                 3.4413                 2.2537

                     49                     50                     51
                      A                      A                      A
 Frequencies --   3151.5236              3153.3703              3160.8828
 Red. masses --      1.1020                 1.1042                 1.1035
 Frc consts  --      6.4486                 6.4693                 6.4958
 IR Inten    --      2.0642                 3.3332                 0.7619

                     52                     53                     54
                      A                      A                      A
 Frequencies --   3170.8766              3228.9577              3776.6098
 Red. masses --      1.1044                 1.1001                 1.0677
 Frc consts  --      6.5426                 6.7576                 8.9723
 IR Inten    --      0.1517                21.4789               156.6804

 - Thermochemistry -
 -------------------
 Temperature     0.001 Kelvin.  Pressure   1.00000 Atm.
 Atom     1 has atomic number  6 and mass  12.00000

 Molecular mass:   114.09189 amu.
 Principal axes and moments of inertia in atomic units:
                           1         2         3
     Eigenvalues --   720.50722 800.640641105.66204
           X            0.99798   0.06266  -0.01088
           Y           -0.06253   0.99797   0.01185
           Z            0.01160  -0.01115   0.99987
 This molecule is an asymmetric top.
 Rotational symmetry number  1.
 Warning -- assumption of classical behavior for rotation
           may cause significant error
 Rotational temperatures (Kelvin)      0.12021     0.10818     0.07834
 Rotational constants (GHZ):           2.50482     2.25412     1.63227
 Zero-point vibrational energy     470648.3 (Joules/Mol)
                                  112.48765 (Kcal/Mol)
 Vibrational temperatures:    164.38   311.24   353.42   361.71   406.55
          (Kelvin)            412.89   422.79   495.96   531.80   696.85
                              833.27   845.14   999.68  1016.84  1130.44
                             1281.45  1336.77  1362.96  1381.65  1416.09
                             1452.42  1483.58  1509.34  1655.18  1689.93
                             1760.15  1795.71  1820.58  1868.34  1885.41
                             1941.03  1965.81  2033.31  2060.23  2071.42
                             2103.80  2130.82  2143.84  2162.69  2169.96
                             2179.05  2564.81  4404.18  4414.43  4420.09
                             4467.07  4515.04  4521.09  4534.34  4537.00
                             4547.81  4562.18  4645.75  5433.70

 Zero-point correction=                           0.179260 (Hartree/Particle)
 Thermal correction to Energy=                    0.179260
 Thermal correction to Enthalpy=                  0.179260
 Thermal correction to Gibbs Free Energy=         0.179261
 Sum of electronic and zero-point Energies=           -365.299345
 Sum of electronic and thermal Energies=              -365.299345
 Sum of electronic and thermal Enthalpies=            -365.299345
 Sum of electronic and thermal Free Energies=         -365.299345

                     E (Thermal)             CV                S
                      KCal/Mol        Cal/Mol-Kelvin    Cal/Mol-Kelvin
 Total                  112.488              5.962            -32.140
 Electronic               0.000              0.000              0.000
 Translational            0.000              2.981            -22.513
 Rotational               0.000              2.981             -9.627
 Vibrational            112.488              0.000              0.000

 Optimization completed.
    -- Stationary point found.
 Normal termination of Gaussian 16 at Sun Oct 13 23:57:11 2019.
