 Gaussian 16, Revision A.03,
 Gaussian 16:  ES64L-G16RevA.03 25-Dec-2016

 -------------------------------------------------------------------
 #P opt freq m062x/6-311++g(d,p) geom=connectivity temperature=0.001
 -------------------------------------------------------------------

 -------------------
 Title Card Required
 -------------------
 Symbolic Z-matrix:
 Charge =  0 Multiplicity = 2

 SCF Done:  E(UM062X) =  -483.584479409     A.U. after   20 cycles
 SCF Done:  E(UM062X) =  -483.606607757     A.U. after   17 cycles
 SCF Done:  E(UM062X) =  -483.612293166     A.U. after   17 cycles
 SCF Done:  E(UM062X) =  -483.616103667     A.U. after   16 cycles
 SCF Done:  E(UM062X) =  -483.619087391     A.U. after   16 cycles
 SCF Done:  E(UM062X) =  -483.621738283     A.U. after   15 cycles
 SCF Done:  E(UM062X) =  -483.622450138     A.U. after   16 cycles
 SCF Done:  E(UM062X) =  -483.622862179     A.U. after   13 cycles
 SCF Done:  E(UM062X) =  -483.623210657     A.U. after   14 cycles
 SCF Done:  E(UM062X) =  -483.623813826     A.U. after   17 cycles
 SCF Done:  E(UM062X) =  -483.625478532     A.U. after   18 cycles
 SCF Done:  E(UM062X) =  -483.627746534     A.U. after   16 cycles
 SCF Done:  E(UM062X) =  -483.630402015     A.U. after   16 cycles
 SCF Done:  E(UM062X) =  -483.630639304     A.U. after   17 cycles
 SCF Done:  E(UM062X) =  -483.630788837     A.U. after   16 cycles
 SCF Done:  E(UM062X) =  -483.631068424     A.U. after   13 cycles
 SCF Done:  E(UM062X) =  -483.631083053     A.U. after   14 cycles
 SCF Done:  E(UM062X) =  -483.631084510     A.U. after   13 cycles
 SCF Done:  E(UM062X) =  -483.631084686     A.U. after   11 cycles
 Optimization completed.
    -- Stationary point found.
 Normal termination of Gaussian 16 at Mon Oct 14 00:12:28 2019.

 ----------------------------------------------------------------------
 #P Geom=AllCheck Guess=TCheck SCRF=Check GenChk UM062X/6-311++G(d,p) F
 req
 ----------------------------------------------------------------------

 Structure from the checkpoint file:  "6.chk"
 -------------------
 Title Card Required
 -------------------
 Charge =  0 Multiplicity = 2

                         Standard orientation:
 ---------------------------------------------------------------------
 Center     Atomic      Atomic             Coordinates (Angstroms)
 Number     Number       Type             X           Y           Z
 ---------------------------------------------------------------------
      1          6           0       -1.711495   -0.157551    1.455665
      2          6           0       -1.317595   -0.070967   -0.025949
      3          6           0       -2.344387   -0.831820   -0.865035
      4          6           0       -1.240095    1.383142   -0.504913
      5          6           0       -0.000057    2.116040   -0.006383
      6          6           0        1.240046    1.383209   -0.504865
      7          6           0        1.317606   -0.070889   -0.025941
      8          6           0        1.711402   -0.157582    1.455687
      9          6           0        2.344448   -0.831679   -0.864993
     10          7           0        0.000031   -0.744190   -0.223873
     11          8           0        0.000108   -2.007358   -0.090951
     12          1           0       -2.753774    0.148893    1.573840
     13          1           0       -1.609499   -1.188923    1.798075
     14          1           0       -1.096735    0.484042    2.088017
     15          1           0       -2.469251   -1.848756   -0.496025
     16          1           0       -3.303610   -0.310936   -0.815151
     17          1           0       -2.022995   -0.878819   -1.907539
     18          1           0       -1.234164    1.389858   -1.600864
     19          1           0       -2.155452    1.889990   -0.185923
     20          1           0       -0.000075    3.142853   -0.379800
     21          1           0       -0.000077    2.182683    1.085694
     22          1           0        1.234157    1.389953   -1.600816
     23          1           0        2.155364    1.890111   -0.185842
     24          1           0        1.609794   -1.189045    1.797908
     25          1           0        2.753537    0.149286    1.574002
     26          1           0        1.096312    0.483709    2.088038
     27          1           0        2.469280   -1.848650   -0.496054
     28          1           0        2.023169   -0.878634   -1.907525
     29          1           0        3.303689   -0.310837   -0.814958
 ---------------------------------------------------------------------

 SCF Done:  E(UM062X) =  -483.631084686     A.U. after    1 cycles

 The electronic state is 2-A.
 Alpha  occ. eigenvalues --  -19.61661 -14.82970 -10.58668 -10.58667 -10.54205
 Alpha  occ. eigenvalues --  -10.54164 -10.54145 -10.52881 -10.52880 -10.52267
 Alpha  occ. eigenvalues --  -10.52266  -1.22403  -0.97879  -0.92484  -0.87247
 Alpha  occ. eigenvalues --   -0.81640  -0.79001  -0.78007  -0.77603  -0.69329
 Alpha  occ. eigenvalues --   -0.68256  -0.60110  -0.56719  -0.55987  -0.55558
 Alpha  occ. eigenvalues --   -0.53824  -0.51472  -0.49898  -0.49724  -0.47690
 Alpha  occ. eigenvalues --   -0.47317  -0.45796  -0.45686  -0.44146  -0.43653
 Alpha  occ. eigenvalues --   -0.43305  -0.42134  -0.41604  -0.39516  -0.38864
 Alpha  occ. eigenvalues --   -0.38716  -0.37206  -0.32797  -0.25717
 Alpha virt. eigenvalues --   -0.00623   0.00622   0.00849   0.01194   0.02500
 Alpha virt. eigenvalues --    0.02891   0.03161   0.03254   0.03690   0.05249
 Alpha virt. eigenvalues --    0.05446   0.05794   0.05868   0.06308   0.06501

  Beta  occ. eigenvalues --  -19.60584 -14.82197 -10.58694 -10.58693 -10.54206
  Beta  occ. eigenvalues --  -10.54162 -10.54144 -10.52847 -10.52847 -10.52255
  Beta  occ. eigenvalues --  -10.52255  -1.19450  -0.96799  -0.92313  -0.86623
  Beta  occ. eigenvalues --   -0.80006  -0.78811  -0.77904  -0.77570  -0.69085
  Beta  occ. eigenvalues --   -0.67701  -0.59202  -0.55829  -0.55667  -0.53888
  Beta  occ. eigenvalues --   -0.51643  -0.51395  -0.49678  -0.49349  -0.46999
  Beta  occ. eigenvalues --   -0.46791  -0.45528  -0.45334  -0.43415  -0.43167
  Beta  occ. eigenvalues --   -0.42948  -0.41560  -0.40257  -0.39365  -0.38681
  Beta  occ. eigenvalues --   -0.37104  -0.36144  -0.31120
  Beta virt. eigenvalues --   -0.00960  -0.00537   0.00663   0.00906   0.01247
  Beta virt. eigenvalues --    0.02544   0.02943   0.03229   0.03305   0.03736
  Beta virt. eigenvalues --    0.05304   0.05484   0.05906   0.05929   0.06357

 Mulliken charges and spin densities:
               1          2
     1  C   -0.464091   0.013295
     2  C   -0.243399  -0.006041
     3  C   -0.433130  -0.025404
     4  C   -0.336328   0.004782
     5  C   -0.307590   0.047452
     6  C   -0.336365   0.004742
     7  C   -0.243309  -0.006037
     8  C   -0.464051   0.013310
     9  C   -0.433134  -0.025386
    10  N    0.057139   0.420264
    11  O    0.004562   0.554476
    12  H    0.179655   0.001623
    13  H    0.198219  -0.000708
    14  H    0.124868  -0.001209
    15  H    0.199032  -0.002739
    16  H    0.158851  -0.000850
    17  H    0.177049   0.003045
    18  H    0.174644   0.005989
    19  H    0.194272  -0.004015
    20  H    0.243673   0.001574
    21  H    0.142927   0.000709
    22  H    0.174634   0.005985
    23  H    0.194268  -0.004016
    24  H    0.198208  -0.000711
    25  H    0.179669   0.001622
    26  H    0.124804  -0.001206
    27  H    0.199029  -0.002739
    28  H    0.177047   0.003045
    29  H    0.158849  -0.000849
 Sum of Mulliken charges =  -0.00000   1.00000

 Dipole moment (field-independent basis, Debye):
    X=             -0.0002    Y=              3.1767    Z=              0.2399  Tot=              3.1857
 Quadrupole moment (field-independent basis, Debye-Ang):
   XX=            -67.0471   YY=            -76.5526   ZZ=            -70.1056
   XY=              0.0003   XZ=              0.0000   YZ=             -0.7692

  Exact polarizability: 122.095   0.000 113.678  -0.000   0.002 103.829
 Approx polarizability: 135.007  -0.001 140.748  -0.000  -0.256 129.892

                      1                      2                      3
                      A                      A                      A
 Frequencies --     85.3481               133.2166               198.9221
 Red. masses --      4.0912                 2.4555                 1.0646
 Frc consts  --      0.0176                 0.0257                 0.0248
 IR Inten    --      2.9835                 0.0497                 0.0232

                      4                      5                      6
                      A                      A                      A
 Frequencies --    207.3688               246.6672               262.9759
 Red. masses --      2.7564                 1.1441                 1.0514
 Frc consts  --      0.0698                 0.0410                 0.0428
 IR Inten    --      1.1064                 0.3833                 0.0899

                      7                      8                      9
                      A                      A                      A
 Frequencies --    281.9707               297.6838               304.1418
 Red. masses --      1.4012                 2.0473                 2.2035
 Frc consts  --      0.0656                 0.1069                 0.1201
 IR Inten    --      0.6339                 0.0299                 0.0102

                     10                     11                     12
                      A                      A                      A
 Frequencies --    313.4089               331.4285               337.3388
 Red. masses --      2.7091                 1.7542                 2.8256
 Frc consts  --      0.1568                 0.1135                 0.1894
 IR Inten    --      0.5895                 0.6306                 1.0019

                     13                     14                     15
                      A                      A                      A
 Frequencies --    391.9452               411.1100               412.1488
 Red. masses --      3.3002                 2.5566                 1.7949
 Frc consts  --      0.2987                 0.2546                 0.1796
 IR Inten    --      7.8339                 2.1006                 0.8001

                     16                     17                     18
                      A                      A                      A
 Frequencies --    459.5455               474.6168               549.2596
 Red. masses --      3.1262                 3.1216                 3.3070
 Frc consts  --      0.3890                 0.4143                 0.5878
 IR Inten    --      0.7215                 1.1274                 8.7194

                     19                     20                     21
                      A                      A                      A
 Frequencies --    571.1805               583.6026               655.7494
 Red. masses --      4.1185                 2.0197                 3.4218
 Frc consts  --      0.7917                 0.4053                 0.8669
 IR Inten    --      7.7264                 0.5939                 2.4224

                     22                     23                     24
                      A                      A                      A
 Frequencies --    809.3212               821.5409               874.2341
 Red. masses --      2.5285                 2.1792                 1.5024
 Frc consts  --      0.9758                 0.8666                 0.6766
 IR Inten    --      0.1150                 2.8265                 1.8788

                     25                     26                     27
                      A                      A                      A
 Frequencies --    899.8039               946.1463               952.9488
 Red. masses --      2.3177                 1.8781                 1.6186
 Frc consts  --      1.1056                 0.9906                 0.8660
 IR Inten    --      0.0171                 0.1515                 1.1924

                     28                     29                     30
                      A                      A                      A
 Frequencies --    953.6272               978.5193               998.7917
 Red. masses --      1.4612                 1.5675                 1.6407
 Frc consts  --      0.7829                 0.8843                 0.9644
 IR Inten    --      0.9083                 5.0916                 7.7354

                     31                     32                     33
                      A                      A                      A
 Frequencies --   1016.5978              1017.5737              1068.3687
 Red. masses --      1.4417                 1.2920                 1.5921
 Frc consts  --      0.8778                 0.7882                 1.0707
 IR Inten    --      1.1408                 0.3974                 1.1683

                     34                     35                     36
                      A                      A                      A
 Frequencies --   1083.3179              1084.8663              1116.6181
 Red. masses --      2.1103                 1.6326                 1.4048
 Frc consts  --      1.4592                 1.1321                 1.0320
 IR Inten    --      0.0470                 2.9949                 3.2549

                     37                     38                     39
                      A                      A                      A
 Frequencies --   1175.3658              1213.0196              1237.9475
 Red. masses --      2.1380                 2.3043                 3.1156
 Frc consts  --      1.7402                 1.9977                 2.8132
 IR Inten    --     15.4792                 5.3209                 5.7355

                     40                     41                     42
                      A                      A                      A
 Frequencies --   1251.9112              1271.2773              1289.4083
 Red. masses --      1.9893                 1.9666                 2.6238
 Frc consts  --      1.8369                 1.8726                 2.5702
 IR Inten    --      1.3229                 2.3710                20.3436

                     43                     44                     45
                      A                      A                      A
 Frequencies --   1305.6149              1332.9788              1374.3836
 Red. masses --      2.1136                 1.3109                 1.5230
 Frc consts  --      2.1228                 1.3723                 1.6950
 IR Inten    --     16.4717                 1.4459                 0.6617

                     46                     47                     48
                      A                      A                      A
 Frequencies --   1389.7622              1392.6098              1399.2487
 Red. masses --      1.4695                 1.2750                 1.5841
 Frc consts  --      1.6723                 1.4569                 1.8274
 IR Inten    --     17.1102                 0.1584                 2.0557

                     49                     50                     51
                      A                      A                      A
 Frequencies --   1401.7683              1415.4530              1417.5477
 Red. masses --      1.4538                 1.2370                 1.3375
 Frc consts  --      1.6831                 1.4602                 1.5835
 IR Inten    --     26.7315                15.9101                 4.5190

                     52                     53                     54
                      A                      A                      A
 Frequencies --   1473.2643              1475.1382              1480.2474
 Red. masses --      1.0582                 4.8414                 1.0805
 Frc consts  --      1.3533                 6.2071                 1.3949
 IR Inten    --      2.1852                 0.9624                 0.8307

                     55                     56                     57
                      A                      A                      A
 Frequencies --   1484.1502              1490.9740              1493.1243
 Red. masses --      1.0687                 1.0867                 1.0574
 Frc consts  --      1.3869                 1.4233                 1.3889
 IR Inten    --      0.5252                 5.7357                 1.6085

                     58                     59                     60
                      A                      A                      A
 Frequencies --   1498.9913              1501.8948              1505.3969
 Red. masses --      1.0753                 1.0592                 1.1180
 Frc consts  --      1.4236                 1.4077                 1.4928
 IR Inten    --      1.4120                10.5630                 4.4841

                     61                     62                     63
                      A                      A                      A
 Frequencies --   1513.5749              1514.6398              1524.7844
 Red. masses --      1.0574                 1.0834                 1.0836
 Frc consts  --      1.4272                 1.4644                 1.4843
 IR Inten    --     11.7566                17.4787                 4.2443

                     64                     65                     66
                      A                      A                      A
 Frequencies --   3049.9669              3051.3834              3064.3907
 Red. masses --      1.0621                 1.0631                 1.0352
 Frc consts  --      5.8213                 5.8319                 5.7273
 IR Inten    --     10.0348                22.9683                 0.7216

                     67                     68                     69
                      A                      A                      A
 Frequencies --   3065.6590              3069.5368              3070.0051
 Red. masses --      1.0409                 1.0369                 1.0451
 Frc consts  --      5.7640                 5.7562                 5.8035
 IR Inten    --     13.1279                33.3783                15.4218

                     70                     71                     72
                      A                      A                      A
 Frequencies --   3072.4291              3099.2891              3101.2872
 Red. masses --      1.0506                 1.1016                 1.0968
 Frc consts  --      5.8435                 6.2346                 6.2154
 IR Inten    --     14.8186                21.9889                24.7073

                     73                     74                     75
                      A                      A                      A
 Frequencies --   3112.9679              3137.1142              3140.5691
 Red. masses --      1.1044                 1.1022                 1.1020
 Frc consts  --      6.3057                 6.3912                 6.4040
 IR Inten    --     32.5924                15.8946                17.9409

                     76                     77                     78
                      A                      A                      A
 Frequencies --   3142.5366              3144.1310              3151.6069
 Red. masses --      1.1026                 1.1016                 1.1034
 Frc consts  --      6.4154                 6.4163                 6.4573
 IR Inten    --     39.0584                 7.0522                 1.8931

                     79                     80                     81
                      A                      A                      A
 Frequencies --   3161.7996              3170.5447              3170.8351
 Red. masses --      1.1012                 1.1015                 1.1014
 Frc consts  --      6.4863                 6.5236                 6.5242
 IR Inten    --     18.9471                 0.6146                14.8761

 - Thermochemistry -
 -------------------
 Temperature     0.001 Kelvin.  Pressure   1.00000 Atm.
 Atom     1 has atomic number  6 and mass  12.00000

 Molecular mass:   156.13884 amu.
 Principal axes and moments of inertia in atomic units:
                           1         2         3
     Eigenvalues --  1209.496671680.132012091.13063
           X            1.00000   0.00000  -0.00000
           Y           -0.00000   1.00000  -0.00018
           Z            0.00000   0.00018   1.00000
 This molecule is an asymmetric top.
 Rotational symmetry number  1.
 Warning -- assumption of classical behavior for rotation
           may cause significant error
 Rotational temperatures (Kelvin)      0.07161     0.05155     0.04142
 Rotational constants (GHZ):           1.49214     1.07417     0.86305
 Zero-point vibrational energy     693430.0 (Joules/Mol)
                                  165.73374 (Kcal/Mol)
 Vibrational temperatures:    122.80   191.67   286.20   298.36   354.90
          (Kelvin)            378.36   405.69   428.30   437.59   450.93
                              476.85   485.36   563.92   591.50   592.99
                              661.18   682.87   790.26   821.80   839.67
                              943.48  1164.43  1182.01  1257.83  1294.62
                             1361.29  1371.08  1372.06  1407.87  1437.04
                             1462.66  1464.06  1537.14  1558.65  1560.88
                             1606.56  1691.09  1745.26  1781.13  1801.22
                             1829.08  1855.17  1878.49  1917.86  1977.43
                             1999.56  2003.65  2013.21  2016.83  2036.52
                             2039.53  2119.70  2122.39  2129.75  2135.36
                             2145.18  2148.27  2156.71  2160.89  2165.93
                             2177.70  2179.23  2193.82  4388.22  4390.26
                             4408.97  4410.80  4416.38  4417.05  4420.54
                             4459.19  4462.06  4478.87  4513.61  4518.58
                             4521.41  4523.70  4534.46  4549.12  4561.71
                             4562.12

 Zero-point correction=                           0.264114 (Hartree/Particle)
 Thermal correction to Energy=                    0.264114
 Thermal correction to Enthalpy=                  0.264114
 Thermal correction to Gibbs Free Energy=         0.264114
 Sum of electronic and zero-point Energies=           -483.366971
 Sum of electronic and thermal Energies=              -483.366971
 Sum of electronic and thermal Enthalpies=            -483.366971
 Sum of electronic and thermal Free Energies=         -483.366971

                     E (Thermal)             CV                S
                      KCal/Mol        Cal/Mol-Kelvin    Cal/Mol-Kelvin
 Total                  165.734              5.962            -27.943
 Electronic               0.000              0.000              1.377
 Translational            0.000              2.981            -21.577
 Rotational               0.000              2.981             -7.743
 Vibrational            165.734              0.000              0.000

                           ! Non-Optimized Parameters !
 Normal termination of Gaussian 16 at Mon Oct 14 00:23:21 2019.
