 Gaussian 16, Revision A.03,
 Gaussian 16:  ES64L-G16RevA.03 25-Dec-2016

 -------------------------------------------------------------------
 #p opt freq m062x/6-311++g(d,p) geom=connectivity temperature=0.001
 -------------------------------------------------------------------

 -------------------
 Title Card Required
 -------------------
 Symbolic Z-matrix:
 Charge =  1 Multiplicity = 2

 SCF Done:  E(UM062X) =  -483.921070769     A.U. after   19 cycles
 SCF Done:  E(UM062X) =  -483.942246054     A.U. after   16 cycles
 SCF Done:  E(UM062X) =  -483.948395159     A.U. after   16 cycles
 SCF Done:  E(UM062X) =  -483.952777505     A.U. after   15 cycles
 SCF Done:  E(UM062X) =  -483.955551275     A.U. after   14 cycles
 SCF Done:  E(UM062X) =  -483.958967384     A.U. after   15 cycles
 SCF Done:  E(UM062X) =  -483.963655730     A.U. after   15 cycles
 SCF Done:  E(UM062X) =  -483.967365987     A.U. after   15 cycles
 SCF Done:  E(UM062X) =  -483.970015598     A.U. after   14 cycles
 SCF Done:  E(UM062X) =  -483.971401631     A.U. after   13 cycles
 SCF Done:  E(UM062X) =  -483.978246172     A.U. after   13 cycles
 SCF Done:  E(UM062X) =  -483.978595800     A.U. after   13 cycles
 SCF Done:  E(UM062X) =  -483.978623809     A.U. after   13 cycles
 SCF Done:  E(UM062X) =  -483.978693167     A.U. after   12 cycles
 SCF Done:  E(UM062X) =  -483.978699890     A.U. after   11 cycles
 SCF Done:  E(UM062X) =  -483.978701637     A.U. after   10 cycles
 SCF Done:  E(UM062X) =  -483.978702501     A.U. after   10 cycles
 SCF Done:  E(UM062X) =  -483.978703043     A.U. after   10 cycles
 SCF Done:  E(UM062X) =  -483.978703142     A.U. after    9 cycles
 Optimization completed.
    -- Stationary point found.
 Normal termination of Gaussian 16 at Mon Oct 14 00:18:46 2019.

 ----------------------------------------------------------------------
 #P Geom=AllCheck Guess=TCheck SCRF=Check GenChk UM062X/6-311++G(d,p) F
 req
 ----------------------------------------------------------------------

 Structure from the checkpoint file:  "6_p.chk"
 -------------------
 Title Card Required
 -------------------
 Charge =  1 Multiplicity = 2

                         Standard orientation:
 ---------------------------------------------------------------------
 Center     Atomic      Atomic             Coordinates (Angstroms)
 Number     Number       Type             X           Y           Z
 ---------------------------------------------------------------------
      1          6           0       -1.725576   -0.116077    1.474765
      2          6           0       -1.350193   -0.054062   -0.017101
      3          6           0       -2.347457   -0.863982   -0.848728
      4          6           0       -1.261030    1.387707   -0.535050
      5          6           0       -0.020872    2.135460   -0.059976
      6          6           0        1.229024    1.407215   -0.540977
      7          6           0        1.339200   -0.029473   -0.012752
      8          6           0        1.713515   -0.072021    1.479848
      9          6           0        2.360044   -0.819884   -0.839698
     10          7           0       -0.001165   -0.679910   -0.167958
     11          8           0       -0.051462   -1.994646   -0.104209
     12          1           0       -2.768978    0.191362    1.563007
     13          1           0       -1.636418   -1.134532    1.855818
     14          1           0       -1.121213    0.553613    2.085090
     15          1           0       -2.524245   -1.852707   -0.427836
     16          1           0       -3.291174   -0.316505   -0.852242
     17          1           0       -2.007951   -0.966114   -1.880915
     18          1           0       -1.274259    1.368463   -1.629514
     19          1           0       -2.174234    1.893124   -0.213818
     20          1           0       -0.027338    3.145367   -0.472108
     21          1           0       -0.018582    2.248732    1.027310
     22          1           0        1.233674    1.380657   -1.635473
     23          1           0        2.137132    1.927472   -0.228089
     24          1           0        1.632038   -1.082547    1.886569
     25          1           0        2.753589    0.246890    1.569913
     26          1           0        1.097786    0.597207    2.077810
     27          1           0        2.647779   -1.774333   -0.384387
     28          1           0        2.014898   -0.981851   -1.862935
     29          1           0        3.275717   -0.228915   -0.884732
     30          1           0        0.851709   -2.348145   -0.186084
 ---------------------------------------------------------------------

 SCF Done:  E(UM062X) =  -483.978703142     A.U. after    1 cycles

 The electronic state is 2-A.
 Alpha  occ. eigenvalues --  -19.91133 -15.07472 -10.77858 -10.76499 -10.70434
 Alpha  occ. eigenvalues --  -10.69681 -10.69607 -10.68990 -10.68398 -10.68342
 Alpha  occ. eigenvalues --  -10.67629  -1.49396  -1.20495  -1.10539  -1.05608
 Alpha  occ. eigenvalues --   -1.00417  -0.96164  -0.94026  -0.93573  -0.90475
 Alpha  occ. eigenvalues --   -0.86550  -0.83009  -0.78574  -0.75836  -0.73607
 Alpha  occ. eigenvalues --   -0.70356  -0.68792  -0.66831  -0.66034  -0.65663
 Alpha  occ. eigenvalues --   -0.65231  -0.63927  -0.62471  -0.61490  -0.60281
 Alpha  occ. eigenvalues --   -0.60005  -0.59349  -0.58634  -0.57113  -0.56016
 Alpha  occ. eigenvalues --   -0.54700  -0.54300  -0.53201  -0.49717
 Alpha virt. eigenvalues --   -0.13104  -0.10802  -0.10052  -0.09775  -0.08324
 Alpha virt. eigenvalues --   -0.08032  -0.07842  -0.07474  -0.06903  -0.06019
 Alpha virt. eigenvalues --   -0.05214  -0.04948  -0.04714  -0.04221  -0.04074

  Beta  occ. eigenvalues --  -19.90527 -15.06332 -10.77887 -10.76528 -10.70416
  Beta  occ. eigenvalues --  -10.69675 -10.69549 -10.68983 -10.68344 -10.68338
  Beta  occ. eigenvalues --  -10.67611  -1.46976  -1.18117  -1.10075  -1.04643
  Beta  occ. eigenvalues --   -0.99890  -0.95741  -0.93721  -0.93414  -0.89535
  Beta  occ. eigenvalues --   -0.85742  -0.82425  -0.75719  -0.73481  -0.71607
  Beta  occ. eigenvalues --   -0.70143  -0.68404  -0.66454  -0.65827  -0.65335
  Beta  occ. eigenvalues --   -0.64287  -0.63404  -0.61503  -0.61267  -0.59754
  Beta  occ. eigenvalues --   -0.59651  -0.58727  -0.58181  -0.57011  -0.55615
  Beta  occ. eigenvalues --   -0.54136  -0.53889  -0.53110
  Beta virt. eigenvalues --   -0.25616  -0.13031  -0.10772  -0.10087  -0.09738
  Beta virt. eigenvalues --   -0.08289  -0.08005  -0.07804  -0.07433  -0.06897
  Beta virt. eigenvalues --   -0.06058  -0.05185  -0.04914  -0.04705  -0.04177

 Mulliken charges and spin densities:
               1          2
     1  C   -0.417232   0.037038
     2  C   -0.302851  -0.007644
     3  C   -0.471616  -0.012215
     4  C   -0.328886   0.002844
     5  C   -0.348074   0.035012
     6  C   -0.271589   0.008522
     7  C   -0.527245  -0.032207
     8  C   -0.320682   0.040018
     9  C   -0.501241  -0.014669
    10  N    0.043848   0.700698
    11  O    0.278673   0.244008
    12  H    0.229245   0.005096
    13  H    0.212689  -0.002730
    14  H    0.155821  -0.002463
    15  H    0.210659  -0.001846
    16  H    0.211192   0.000658
    17  H    0.211029  -0.000823
    18  H    0.215550   0.005466
    19  H    0.237292  -0.003133
    20  H    0.291085   0.001760
    21  H    0.171490   0.001030
    22  H    0.214052   0.001622
    23  H    0.238271  -0.002794
    24  H    0.209915  -0.002036
    25  H    0.228536   0.004460
    26  H    0.174018   0.000774
    27  H    0.172398  -0.001577
    28  H    0.238219   0.002998
    29  H    0.240558  -0.001263
    30  H    0.304874  -0.006600
 Sum of Mulliken charges =   1.00000   1.00000

 Dipole moment (field-independent basis, Debye):
    X=              1.7102    Y=             -0.9496    Z=             -0.1183  Tot=              1.9597
 Quadrupole moment (field-independent basis, Debye-Ang):
   XX=            -49.8158   YY=            -56.6227   ZZ=            -62.7971
   XY=             -3.6119   XZ=             -0.6106   YZ=              0.2646

  Exact polarizability: 119.194  -0.817 108.810  -0.270   0.429  98.023
 Approx polarizability: 134.307  -0.435 134.545  -0.348   0.754 123.515

                      1                      2                      3
                      A                      A                      A
 Frequencies --     78.3167               129.2307               193.4225
 Red. masses --      3.6988                 2.4689                 1.2344
 Frc consts  --      0.0134                 0.0243                 0.0272
 IR Inten    --      0.0490                 0.0602                 0.0957

                      4                      5                      6
                      A                      A                      A
 Frequencies --    200.1929               247.4912               280.5647
 Red. masses --      2.3341                 1.1881                 1.1298
 Frc consts  --      0.0551                 0.0429                 0.0524
 IR Inten    --      0.0825                 0.0947                 0.3857

                      7                      8                      9
                      A                      A                      A
 Frequencies --    288.7029               298.1495               303.8135
 Red. masses --      1.9487                 1.8704                 1.4001
 Frc consts  --      0.0957                 0.0980                 0.0761
 IR Inten    --      0.8571                 0.4062                 0.4246

                     10                     11                     12
                      A                      A                      A
 Frequencies --    312.2894               324.2178               330.3039
 Red. masses --      2.0883                 2.0572                 2.9728
 Frc consts  --      0.1200                 0.1274                 0.1911
 IR Inten    --      0.2200                 0.1971                 0.0540

                     13                     14                     15
                      A                      A                      A
 Frequencies --    386.1659               396.1816               408.1413
 Red. masses --      2.1275                 2.9767                 1.8125
 Frc consts  --      0.1869                 0.2753                 0.1779
 IR Inten    --      8.8351                 4.3989                 0.1916

                     16                     17                     18
                      A                      A                      A
 Frequencies --    446.4194               463.1876               478.1897
 Red. masses --      3.0078                 1.5107                 1.9798
 Frc consts  --      0.3532                 0.1910                 0.2667
 IR Inten    --      2.2220                50.0729                27.0813

                     19                     20                     21
                      A                      A                      A
 Frequencies --    525.2332               568.1866               578.1147
 Red. masses --      2.8508                 3.6095                 2.1941
 Frc consts  --      0.4634                 0.6866                 0.4321
 IR Inten    --      4.3995                 7.0992                 1.1654

                     22                     23                     24
                      A                      A                      A
 Frequencies --    635.6843               793.5097               798.1685
 Red. masses --      3.3690                 2.4750                 2.6052
 Frc consts  --      0.8021                 0.9182                 0.9779
 IR Inten    --      2.6494                 0.8579                 3.7063

                     25                     26                     27
                      A                      A                      A
 Frequencies --    870.4075               897.9683               939.8582
 Red. masses --      1.5528                 2.2930                 2.0698
 Frc consts  --      0.6931                 1.0894                 1.0772
 IR Inten    --      2.9753                 0.5666                 9.7400

                     28                     29                     30
                      A                      A                      A
 Frequencies --    949.7092               955.0839               974.8933
 Red. masses --      1.6177                 1.6185                 1.7976
 Frc consts  --      0.8597                 0.8699                 1.0066
 IR Inten    --      1.6436                 3.5455                18.3282

                     31                     32                     33
                      A                      A                      A
 Frequencies --    981.7360              1000.5702              1015.7756
 Red. masses --      1.7804                 1.7033                 1.3792
 Frc consts  --      1.0110                 1.0047                 0.8384
 IR Inten    --      3.5347                 7.5605                 1.2843

                     34                     35                     36
                      A                      A                      A
 Frequencies --   1029.7684              1067.5383              1090.6048
 Red. masses --      1.3372                 1.6037                 1.5911
 Frc consts  --      0.8355                 1.0768                 1.1150
 IR Inten    --      4.6224                 1.5601                 4.4247

                     37                     38                     39
                      A                      A                      A
 Frequencies --   1111.1815              1148.0519              1181.7637
 Red. masses --      1.4907                 2.1441                 2.1913
 Frc consts  --      1.0844                 1.6650                 1.8031
 IR Inten    --      3.0929                31.0513                 3.6594

                     40                     41                     42
                      A                      A                      A
 Frequencies --   1226.0605              1248.1743              1258.3144
 Red. masses --      3.2208                 2.0386                 2.8086
 Frc consts  --      2.8526                 1.8713                 2.6201
 IR Inten    --      3.6495                 3.5996                49.5774

                     43                     44                     45
                      A                      A                      A
 Frequencies --   1267.5116              1269.2586              1328.3071
 Red. masses --      1.8370                 1.6023                 1.3783
 Frc consts  --      1.7389                 1.5209                 1.4328
 IR Inten    --      1.8706                 9.1518                 7.8821

                     46                     47                     48
                      A                      A                      A
 Frequencies --   1350.4925              1374.0749              1398.7706
 Red. masses --      3.1736                 1.4190                 1.2497
 Frc consts  --      3.4103                 1.5785                 1.4406
 IR Inten    --     29.5447                 4.2166                 9.3179

                     49                     50                     51
                      A                      A                      A
 Frequencies --   1400.1295              1406.8546              1411.6671
 Red. masses --      1.6201                 1.4145                 1.2761
 Frc consts  --      1.8712                 1.6495                 1.4983
 IR Inten    --      2.3169                 3.6643                23.1535

                     52                     53                     54
                      A                      A                      A
 Frequencies --   1426.4524              1435.4261              1457.7154
 Red. masses --      1.2107                 1.3158                 1.3388
 Frc consts  --      1.4514                 1.5974                 1.6761
 IR Inten    --      9.8361                 8.9681                54.4368

                     55                     56                     57
                      A                      A                      A
 Frequencies --   1475.8710              1478.7424              1484.5565
 Red. masses --      1.0602                 1.0577                 1.0667
 Frc consts  --      1.3606                 1.3627                 1.3852
 IR Inten    --      1.5918                 0.5582                 0.6446

                     58                     59                     60
                      A                      A                      A
 Frequencies --   1487.5308              1494.3145              1500.7543
 Red. masses --      1.0544                 1.1020                 1.0562
 Frc consts  --      1.3746                 1.4499                 1.4016
 IR Inten    --      2.4905                14.7849                 6.3309

                     61                     62                     63
                      A                      A                      A
 Frequencies --   1504.9378              1508.0359              1510.5040
 Red. masses --      1.0749                 1.0799                 1.0632
 Frc consts  --      1.4343                 1.4469                 1.4292
 IR Inten    --     16.3996                16.3539                31.9924

                     64                     65                     66
                      A                      A                      A
 Frequencies --   1518.8223              1524.6576              3046.9365
 Red. masses --      1.0639                 1.0516                 1.0446
 Frc consts  --      1.4460                 1.4403                 5.7137
 IR Inten    --      8.2957                25.5140                 5.8539

                     67                     68                     69
                      A                      A                      A
 Frequencies --   3068.5893              3069.8356              3076.2082
 Red. masses --      1.0642                 1.0648                 1.0373
 Frc consts  --      5.9043                 5.9120                 5.7837
 IR Inten    --      4.7074                 4.3451                 0.8009

                     70                     71                     72
                      A                      A                      A
 Frequencies --   3079.6793              3081.6804              3089.6204
 Red. masses --      1.0362                 1.0374                 1.0624
 Frc consts  --      5.7906                 5.8045                 5.9750
 IR Inten    --      1.3230                 0.4946                10.1856

                     73                     74                     75
                      A                      A                      A
 Frequencies --   3124.6661              3127.2416              3127.7526
 Red. masses --      1.1008                 1.0989                 1.0950
 Frc consts  --      6.3326                 6.3319                 6.3112
 IR Inten    --      3.5188                 2.4110                 2.5812

                     76                     77                     78
                      A                      A                      A
 Frequencies --   3136.5776              3150.3216              3158.0032
 Red. masses --      1.1036                 1.1033                 1.1037
 Frc consts  --      6.3967                 6.4513                 6.4850
 IR Inten    --      8.1987                 2.3309                 2.8393

                     79                     80                     81
                      A                      A                      A
 Frequencies --   3160.9182              3161.1564              3172.3732
 Red. masses --      1.1031                 1.1032                 1.1040
 Frc consts  --      6.4935                 6.4954                 6.5465
 IR Inten    --      0.6081                 2.1367                 2.7362

                     82                     83                     84
                      A                      A                      A
 Frequencies --   3175.8263              3186.1790              3731.7887
 Red. masses --      1.1042                 1.1005                 1.0664
 Frc consts  --      6.5615                 6.5823                 8.7498
 IR Inten    --      2.9511                 7.6427               198.6255

 - Thermochemistry -
 -------------------
 Temperature     0.001 Kelvin.  Pressure   1.00000 Atm.
 Atom     1 has atomic number  6 and mass  12.00000

 Molecular mass:   157.14666 amu.
 Principal axes and moments of inertia in atomic units:
                           1         2         3
     Eigenvalues --  1236.097601706.816642132.41420
           X            0.99992  -0.01237  -0.00062
           Y            0.01237   0.99992   0.00403
           Z            0.00057  -0.00404   0.99999
 This molecule is an asymmetric top.
 Rotational symmetry number  1.
 Warning -- assumption of classical behavior for rotation
           may cause significant error
 Rotational temperatures (Kelvin)      0.07007     0.05075     0.04062
 Rotational constants (GHZ):           1.46003     1.05737     0.84634
 Zero-point vibrational energy     725846.6 (Joules/Mol)
                                  173.48151 (Kcal/Mol)
 Vibrational temperatures:    112.68   185.93   278.29   288.03   356.08
          (Kelvin)            403.67   415.38   428.97   437.12   449.31
                              466.48   475.23   555.61   570.02   587.22
                              642.30   666.42   688.01   755.69   817.49
                              831.78   914.61  1141.68  1148.39  1252.32
                             1291.98  1352.25  1366.42  1374.15  1402.65
                             1412.50  1439.60  1461.47  1481.61  1535.95
                             1569.14  1598.74  1651.79  1700.29  1764.03
                             1795.84  1810.43  1823.67  1826.18  1911.14
                             1943.06  1976.99  2012.52  2014.47  2024.15
                             2031.07  2052.35  2065.26  2097.33  2123.45
                             2127.58  2135.95  2140.23  2149.99  2159.25
                             2165.27  2169.73  2173.28  2185.25  2193.64
                             4383.86  4415.02  4416.81  4425.98  4430.97
                             4433.85  4445.27  4495.70  4499.40  4500.14
                             4512.84  4532.61  4543.66  4547.86  4548.20
                             4564.34  4569.31  4584.20  5369.21

 Zero-point correction=                           0.276460 (Hartree/Particle)
 Thermal correction to Energy=                    0.276460
 Thermal correction to Enthalpy=                  0.276460
 Thermal correction to Gibbs Free Energy=         0.276460
 Sum of electronic and zero-point Energies=           -483.702243
 Sum of electronic and thermal Energies=              -483.702243
 Sum of electronic and thermal Enthalpies=            -483.702243
 Sum of electronic and thermal Free Energies=         -483.702243

                     E (Thermal)             CV                S
                      KCal/Mol        Cal/Mol-Kelvin    Cal/Mol-Kelvin
 Total                  173.482              5.962            -27.867
 Electronic               0.000              0.000              1.377
 Translational            0.000              2.981            -21.558
 Rotational               0.000              2.981             -7.686
 Vibrational            173.482              0.000              0.000

                           ! Non-Optimized Parameters !
 Normal termination of Gaussian 16 at Mon Oct 14 00:32:45 2019.
