 Gaussian 16, Revision A.03,
 Gaussian 16:  ES64L-G16RevA.03 25-Dec-2016

 -------------------------------------------------------------------
 #P opt freq m062x/6-311++g(d,p) geom=connectivity temperature=0.001
 -------------------------------------------------------------------

 -------------------
 Title Card Required
 -------------------
 Symbolic Z-matrix:
 Charge =  0 Multiplicity = 1

 SCF Done:  E(RM062X) =  -646.818656680     A.U. after   15 cycles
 SCF Done:  E(RM062X) =  -646.847035929     A.U. after   14 cycles
 SCF Done:  E(RM062X) =  -646.852571354     A.U. after   14 cycles
 SCF Done:  E(RM062X) =  -646.858892055     A.U. after   14 cycles
 SCF Done:  E(RM062X) =  -646.866404405     A.U. after   15 cycles
 SCF Done:  E(RM062X) =  -646.871652553     A.U. after   16 cycles
 SCF Done:  E(RM062X) =  -646.874628420     A.U. after   14 cycles
 SCF Done:  E(RM062X) =  -646.875179725     A.U. after   13 cycles
 SCF Done:  E(RM062X) =  -646.875288979     A.U. after   12 cycles
 SCF Done:  E(RM062X) =  -646.875317902     A.U. after   12 cycles
 SCF Done:  E(RM062X) =  -646.875325989     A.U. after   11 cycles
 SCF Done:  E(RM062X) =  -646.875331028     A.U. after   11 cycles
 SCF Done:  E(RM062X) =  -646.875332768     A.U. after   10 cycles
 SCF Done:  E(RM062X) =  -646.875333401     A.U. after   10 cycles
 SCF Done:  E(RM062X) =  -646.875333579     A.U. after    9 cycles
 Optimization completed.
    -- Stationary point found.
 Normal termination of Gaussian 16 at Sun Oct 13 23:58:52 2019.

 ----------------------------------------------------------------------
 #P Geom=AllCheck Guess=TCheck SCRF=Check GenChk RM062X/6-311++G(d,p) F
 req
 ----------------------------------------------------------------------

 Structure from the checkpoint file:  "7.chk"
 -------------------
 Title Card Required
 -------------------
 Charge =  0 Multiplicity = 1

                         Standard orientation:
 ---------------------------------------------------------------------
 Center     Atomic      Atomic             Coordinates (Angstroms)
 Number     Number       Type             X           Y           Z
 ---------------------------------------------------------------------
      1          6           0       -1.548271   -3.490326   -0.020714
      2          8           0       -1.730637   -2.077092    0.062731
      3          6           0       -0.613002   -1.355733    0.037276
      4          7           0        0.579372   -1.838960   -0.048051
      5          6           0        1.434312   -0.717334   -0.041835
      6          6           0        2.817208   -0.733868   -0.101242
      7          6           0        3.494922    0.485741   -0.061867
      8          6           0        2.804091    1.690911    0.045964
      9          6           0        1.409251    1.710281    0.109141
     10          6           0        0.724486    0.503079    0.049786
     11          6           0       -0.679996    0.109780    0.087996
     12          6           0       -1.830330    0.809561    0.092092
     13          7           0       -1.906128    2.178372    0.122689
     14          8           0       -3.144965    2.679534   -0.292106
     15          1           0       -0.946449   -3.841621    0.818214
     16          1           0       -2.546529   -3.919081    0.011496
     17          1           0       -1.043143   -3.749366   -0.951948
     18          1           0        3.347268   -1.675664   -0.171741
     19          1           0        4.577565    0.495516   -0.106660
     20          1           0        3.354171    2.622927    0.090268
     21          1           0        0.896340    2.657980    0.229657
     22          1           0       -2.788552    0.301358    0.115507
     23          1           0       -1.163340    2.665619   -0.368217
     24          1           0       -3.471259    3.174352    0.466364
 ---------------------------------------------------------------------

 SCF Done:  E(RM062X) =  -646.875333579     A.U. after    1 cycles

 The electronic state is 1-A.
 Alpha  occ. eigenvalues --  -19.69272 -19.66872 -14.84268 -14.72855 -10.63660
 Alpha  occ. eigenvalues --  -10.61225 -10.58834 -10.56626 -10.55575 -10.54942
 Alpha  occ. eigenvalues --  -10.54809 -10.53969 -10.53797 -10.53561  -1.24403
 Alpha  occ. eigenvalues --   -1.21758  -1.06107  -1.00865  -0.94551  -0.88749
 Alpha  occ. eigenvalues --   -0.83910  -0.83330  -0.79990  -0.74317  -0.69328
 Alpha  occ. eigenvalues --   -0.67742  -0.66571  -0.63534  -0.60590  -0.58482
 Alpha  occ. eigenvalues --   -0.57927  -0.56403  -0.56069  -0.53791  -0.51295
 Alpha  occ. eigenvalues --   -0.49949  -0.48720  -0.48513  -0.47146  -0.43474
 Alpha  occ. eigenvalues --   -0.42871  -0.42662  -0.42280  -0.41177  -0.40741
 Alpha  occ. eigenvalues --   -0.36964  -0.34212  -0.33421  -0.27369  -0.26456
 Alpha virt. eigenvalues --   -0.03078  -0.01333   0.00325   0.00463   0.01495
 Alpha virt. eigenvalues --    0.01972   0.02216   0.02919   0.03609   0.04021
 Alpha virt. eigenvalues --    0.04548   0.05133   0.06164   0.06463   0.06929

 Mulliken charges:
               1
     1  C   -0.314190
     2  O   -0.144265
     3  C   -1.169435
     4  N    0.001178
     5  C   -1.226120
     6  C   -0.455743
     7  C   -0.257428
     8  C   -0.387978
     9  C   -0.171540
    10  C    1.779040
    11  C    1.096315
    12  C   -0.487734
    13  N   -0.277952
    14  O   -0.098570
    15  H    0.194151
    16  H    0.165159
    17  H    0.193836
    18  H    0.213635
    19  H    0.196232
    20  H    0.195645
    21  H    0.107191
    22  H    0.285032
    23  H    0.271270
    24  H    0.292274
 Sum of Mulliken charges =  -0.00000

 Dipole moment (field-independent basis, Debye):
    X=             -2.1468    Y=              1.9639    Z=              0.7019  Tot=              2.9930
 Quadrupole moment (field-independent basis, Debye-Ang):
   XX=            -73.9187   YY=            -67.2292   ZZ=            -86.2446
   XY=             -0.2431   XZ=             -4.3123   YZ=              2.8251

  Exact polarizability: 200.506  -7.093 164.198  -2.814   2.595  77.414
 Approx polarizability: 241.673 -15.788 200.576  -4.778   4.466 104.665

                      1                      2                      3
                      A                      A                      A
 Frequencies --     62.5219                90.3104                99.2873
 Red. masses --      4.8206                 4.2269                 4.5983
 Frc consts  --      0.0111                 0.0203                 0.0267
 IR Inten    --      0.7740                 3.4263                 2.6462

                      4                      5                      6
                      A                      A                      A
 Frequencies --    134.3729               160.8570               185.1484
 Red. masses --      3.1049                 2.3702                 3.7077
 Frc consts  --      0.0330                 0.0361                 0.0749
 IR Inten    --      3.2978                 1.2491                 1.6110

                      7                      8                      9
                      A                      A                      A
 Frequencies --    198.0777               230.7364               305.6358
 Red. masses --      1.4686                 3.1495                 5.4371
 Frc consts  --      0.0339                 0.0988                 0.2992
 IR Inten    --      0.6645                 4.4985                 4.5225

                     10                     11                     12
                      A                      A                      A
 Frequencies --    338.6325               351.7739               380.3960
 Red. masses --      4.2413                 4.7542                 2.2749
 Frc consts  --      0.2866                 0.3466                 0.1940
 IR Inten    --      2.7339                 2.8568                32.9144

                     13                     14                     15
                      A                      A                      A
 Frequencies --    404.2847               419.3919               495.0416
 Red. masses --      3.9764                 1.7637                 6.0261
 Frc consts  --      0.3829                 0.1828                 0.8701
 IR Inten    --     15.0481                65.2421                22.9893

                     16                     17                     18
                      A                      A                      A
 Frequencies --    500.4403               587.7177               602.7204
 Red. masses --      3.4916                 3.6686                 4.8110
 Frc consts  --      0.5152                 0.7466                 1.0297
 IR Inten    --      7.8102                28.9243                 3.4919

                     19                     20                     21
                      A                      A                      A
 Frequencies --    653.0978               678.9638               725.5962
 Red. masses --      5.6182                 1.9864                 4.6485
 Frc consts  --      1.4119                 0.5395                 1.4420
 IR Inten    --     46.8473               254.3161                18.4603

                     22                     23                     24
                      A                      A                      A
 Frequencies --    729.3787               754.2228               774.4206
 Red. masses --      5.0492                 4.2330                 1.6611
 Frc consts  --      1.5826                 1.4187                 0.5870
 IR Inten    --     17.4652                19.1184                75.0922

                     25                     26                     27
                      A                      A                      A
 Frequencies --    806.8128               877.4647               903.2222
 Red. masses --      3.6214                 1.3407                 6.5967
 Frc consts  --      1.3889                 0.6082                 3.1708
 IR Inten    --     54.2226                 1.7476                 0.9799

                     28                     29                     30
                      A                      A                      A
 Frequencies --    945.5871               952.9552               983.9734
 Red. masses --      1.4294                 1.3866                 6.5406
 Frc consts  --      0.7530                 0.7419                 3.7311
 IR Inten    --      6.7386                 5.8308                 0.8628

                     31                     32                     33
                      A                      A                      A
 Frequencies --    995.0648              1051.9346              1095.4338
 Red. masses --      1.2772                 2.0331                 7.0241
 Frc consts  --      0.7451                 1.3255                 4.9661
 IR Inten    --      0.2118                11.4625                83.6587

                     34                     35                     36
                      A                      A                      A
 Frequencies --   1119.0928              1141.4312              1174.7063
 Red. masses --      2.3774                 2.7265                 1.2571
 Frc consts  --      1.7542                 2.0929                 1.0221
 IR Inten    --      0.2406                61.1818                 1.2215

                     37                     38                     39
                      A                      A                      A
 Frequencies --   1189.1004              1191.9179              1224.5825
 Red. masses --      1.2769                 2.1529                 1.6903
 Frc consts  --      1.0637                 1.8020                 1.4935
 IR Inten    --      0.7596                15.2378                47.3898

                     40                     41                     42
                      A                      A                      A
 Frequencies --   1260.6854              1278.7166              1301.1445
 Red. masses --      3.0418                 1.9870                 1.6002
 Frc consts  --      2.8483                 1.9143                 1.5961
 IR Inten    --     65.0719                41.0557                18.1961

                     43                     44                     45
                      A                      A                      A
 Frequencies --   1341.9399              1386.2660              1422.8995
 Red. masses --      2.3377                 2.0992                 2.2781
 Frc consts  --      2.4803                 2.3768                 2.7175
 IR Inten    --     39.7484                78.4008               276.6048

                     46                     47                     48
                      A                      A                      A
 Frequencies --   1435.1128              1472.3613              1492.7363
 Red. masses --      1.5036                 1.5467                 1.0419
 Frc consts  --      1.8245                 1.9755                 1.3678
 IR Inten    --    163.4731                47.0395                10.7956

                     49                     50                     51
                      A                      A                      A
 Frequencies --   1493.2596              1503.5202              1511.8778
 Red. masses --      1.9740                 1.8923                 1.0706
 Frc consts  --      2.5934                 2.5203                 1.4418
 IR Inten    --    101.0474                18.2330                10.9407

                     52                     53                     54
                      A                      A                      A
 Frequencies --   1522.5001              1637.3812              1653.1465
 Red. masses --      2.9660                 8.1845                 6.3506
 Frc consts  --      4.0508                12.9283                10.2255
 IR Inten    --     37.1733               400.4683                 0.5195

                     55                     56                     57
                      A                      A                      A
 Frequencies --   1694.8120              1741.5800              3078.6298
 Red. masses --      7.6155                 7.0562                 1.0303
 Frc consts  --     12.8882                12.6098                 5.7536
 IR Inten    --     15.1665               421.5689                37.9032

                     58                     59                     60
                      A                      A                      A
 Frequencies --   3154.0012              3192.1586              3195.9604
 Red. masses --      1.1068                 1.1065                 1.0875
 Frc consts  --      6.4869                 6.6431                 6.5446
 IR Inten    --     13.7906                13.5668                 5.6716

                     61                     62                     63
                      A                      A                      A
 Frequencies --   3206.5948              3218.7203              3221.3355
 Red. masses --      1.0891                 1.0922                 1.0936
 Frc consts  --      6.5978                 6.6670                 6.6864
 IR Inten    --      5.6433                 7.2386                10.5006

                     64                     65                     66
                      A                      A                      A
 Frequencies --   3229.1920              3561.8081              3866.0907
 Red. masses --      1.0974                 1.0763                 1.0687
 Frc consts  --      6.7420                 8.0451                 9.4109
 IR Inten    --      7.5830                26.5383               121.5846

 - Thermochemistry -
 -------------------
 Temperature     0.001 Kelvin.  Pressure   1.00000 Atm.
 Atom     1 has atomic number  6 and mass  12.00000

 Molecular mass:   190.07423 amu.
 Principal axes and moments of inertia in atomic units:
                           1         2         3
     Eigenvalues --  2301.780012896.516345167.40714
           X            0.99807   0.06209  -0.00228
           Y           -0.06208   0.99807   0.00306
           Z            0.00246  -0.00292   0.99999
 This molecule is an asymmetric top.
 Rotational symmetry number  1.
 Warning -- assumption of classical behavior for rotation
           may cause significant error
 Rotational temperatures (Kelvin)      0.03763     0.02990     0.01676
 Rotational constants (GHZ):           0.78406     0.62307     0.34925
 Zero-point vibrational energy     499983.6 (Joules/Mol)
                                  119.49896 (Kcal/Mol)
 Vibrational temperatures:     89.96   129.94   142.85   193.33   231.44
          (Kelvin)            266.39   284.99   331.98   439.74   487.22
                              506.12   547.31   581.68   603.41   712.25
                              720.02   845.59   867.18   939.66   976.88
                             1043.97  1049.41  1085.16  1114.22  1160.82
                             1262.48  1299.54  1360.49  1371.09  1415.72
                             1431.68  1513.50  1576.08  1610.13  1642.26
                             1690.14  1710.85  1714.90  1761.90  1813.85
                             1839.79  1872.06  1930.75  1994.53  2047.24
                             2064.81  2118.40  2147.71  2148.47  2163.23
                             2175.25  2190.54  2355.83  2378.51  2438.46
                             2505.75  4429.46  4537.90  4592.80  4598.27
                             4613.57  4631.02  4634.78  4646.09  5124.65
                             5562.44

 Zero-point correction=                           0.190434 (Hartree/Particle)
 Thermal correction to Energy=                    0.190434
 Thermal correction to Enthalpy=                  0.190434
 Thermal correction to Gibbs Free Energy=         0.190434
 Sum of electronic and zero-point Energies=           -646.684900
 Sum of electronic and thermal Energies=              -646.684900
 Sum of electronic and thermal Enthalpies=            -646.684900
 Sum of electronic and thermal Free Energies=         -646.684900

                     E (Thermal)             CV                S
                      KCal/Mol        Cal/Mol-Kelvin    Cal/Mol-Kelvin
 Total                  119.499              5.962            -26.655
 Electronic               0.000              0.000              0.000
 Translational            0.000              2.981            -20.991
 Rotational               0.000              2.981             -5.664
 Vibrational            119.499              0.000              0.000

                           ! Non-Optimized Parameters !
 Normal termination of Gaussian 16 at Mon Oct 14 00:03:40 2019.
