 Gaussian 16, Revision A.03,
 Gaussian 16:  ES64L-G16RevA.03 25-Dec-2016

 -------------------------------------------------------------------
 #P opt freq m062x/6-311++g(d,p) geom=connectivity temperature=0.001
 -------------------------------------------------------------------

 -------------------
 Title Card Required
 -------------------
 Symbolic Z-matrix:
 Charge =  1 Multiplicity = 1

 SCF Done:  E(RM062X) =  -647.102761932     A.U. after   16 cycles
 SCF Done:  E(RM062X) =  -647.153964474     A.U. after   15 cycles
 SCF Done:  E(RM062X) =  -647.172921560     A.U. after   14 cycles
 SCF Done:  E(RM062X) =  -647.176727598     A.U. after   14 cycles
 SCF Done:  E(RM062X) =  -647.184613591     A.U. after   16 cycles
 SCF Done:  E(RM062X) =  -647.188581057     A.U. after   16 cycles
 SCF Done:  E(RM062X) =  -647.191280798     A.U. after   13 cycles
 SCF Done:  E(RM062X) =  -647.191886167     A.U. after   12 cycles
 SCF Done:  E(RM062X) =  -647.191981535     A.U. after   12 cycles
 SCF Done:  E(RM062X) =  -647.192025974     A.U. after   12 cycles
 SCF Done:  E(RM062X) =  -647.193088690     A.U. after   12 cycles
 SCF Done:  E(RM062X) =  -647.193088699     A.U. after   10 cycles
 SCF Done:  E(RM062X) =  -647.193075267     A.U. after   12 cycles
 SCF Done:  E(RM062X) =  -647.193088802     A.U. after   12 cycles
 SCF Done:  E(RM062X) =  -647.193074409     A.U. after   12 cycles
 SCF Done:  E(RM062X) =  -647.193088806     A.U. after   12 cycles
 SCF Done:  E(RM062X) =  -647.193120572     A.U. after   14 cycles
 SCF Done:  E(RM062X) =  -647.193121671     A.U. after   12 cycles
 SCF Done:  E(RM062X) =  -647.193088806     A.U. after   12 cycles
 Optimization completed.
    -- Stationary point found.
 Normal termination of Gaussian 16 at Mon Oct 14 00:15:48 2019.

 ----------------------------------------------------------------------
 #P Geom=AllCheck Guess=TCheck SCRF=Check GenChk RM062X/6-311++G(d,p) F
 req
 ----------------------------------------------------------------------

 Structure from the checkpoint file:  "7_p.chk"
 -------------------
 Title Card Required
 -------------------
 Charge =  1 Multiplicity = 1

                         Standard orientation:
 ---------------------------------------------------------------------
 Center     Atomic      Atomic             Coordinates (Angstroms)
 Number     Number       Type             X           Y           Z
 ---------------------------------------------------------------------
      1          6           0       -2.083644   -3.268725   -0.049749
      2          8           0       -2.008550   -1.839776    0.132720
      3          6           0       -0.805927   -1.320611    0.074406
      4          7           0        0.301854   -1.922504   -0.120838
      5          6           0        1.303594   -0.915897   -0.095012
      6          6           0        2.659791   -1.118368   -0.241931
      7          6           0        3.502156   -0.006431   -0.151480
      8          6           0        3.002837    1.269399    0.097656
      9          6           0        1.631742    1.470764    0.251552
     10          6           0        0.781379    0.377292    0.127714
     11          6           0       -0.665861    0.174232    0.202150
     12          6           0       -1.725556    0.971440    0.249104
     13          7           0       -1.538933    2.427742    0.243418
     14          8           0       -2.464537    2.975584   -0.655047
     15          1           0       -1.501569   -3.764460    0.726192
     16          1           0       -3.137290   -3.515465    0.030339
     17          1           0       -1.689471   -3.530123   -1.031093
     18          1           0        3.048647   -2.113725   -0.413504
     19          1           0        4.571280   -0.142261   -0.260842
     20          1           0        3.682530    2.106250    0.189978
     21          1           0        1.291511    2.471842    0.505835
     22          1           0       -2.764182    0.670647    0.270536
     23          1           0       -1.693416    2.818321    1.183521
     24          1           0       -2.390377    3.942600   -0.604744
     25          1           0       -0.576469    2.634672   -0.062117
 ---------------------------------------------------------------------

 SCF Done:  E(RM062X) =  -647.193088806     A.U. after    1 cycles

 The electronic state is 1-A.
 Alpha  occ. eigenvalues --  -19.89848 -19.80418 -15.13050 -14.87377 -10.78541
 Alpha  occ. eigenvalues --  -10.77746 -10.74897 -10.71383 -10.70281 -10.70185
 Alpha  occ. eigenvalues --  -10.70006 -10.67803 -10.67445 -10.67027  -1.47161
 Alpha  occ. eigenvalues --   -1.35582  -1.23805  -1.20592  -1.09121  -1.06716
 Alpha  occ. eigenvalues --   -0.99069  -0.97414  -0.95202  -0.91767  -0.89992
 Alpha  occ. eigenvalues --   -0.88350  -0.82845  -0.82507  -0.77901  -0.75962
 Alpha  occ. eigenvalues --   -0.74032  -0.71529  -0.70257  -0.69405  -0.68411
 Alpha  occ. eigenvalues --   -0.65675  -0.64002  -0.62985  -0.62775  -0.62138
 Alpha  occ. eigenvalues --   -0.61173  -0.56264  -0.56018  -0.54903  -0.54681
 Alpha  occ. eigenvalues --   -0.53146  -0.50206  -0.48370  -0.44181  -0.40790
 Alpha virt. eigenvalues --   -0.20638  -0.17111  -0.13614  -0.12149  -0.11340
 Alpha virt. eigenvalues --   -0.09912  -0.08148  -0.08033  -0.07522  -0.07120
 Alpha virt. eigenvalues --   -0.06570  -0.06543  -0.05581  -0.04954  -0.04443

 Mulliken charges:
               1
     1  C   -0.303339
     2  O   -0.121982
     3  C   -1.086334
     4  N    0.083114
     5  C   -1.023050
     6  C   -0.492223
     7  C   -0.211466
     8  C   -0.296746
     9  C   -0.237786
    10  C    1.487945
    11  C    1.150722
    12  C   -0.600959
    13  N   -0.202300
    14  O    0.036787
    15  H    0.214320
    16  H    0.191620
    17  H    0.214573
    18  H    0.257695
    19  H    0.242344
    20  H    0.231794
    21  H    0.111841
    22  H    0.353257
    23  H    0.377035
    24  H    0.306011
    25  H    0.317127
 Sum of Mulliken charges =   1.00000

 Dipole moment (field-independent basis, Debye):
    X=             -3.7782    Y=              8.8598    Z=              1.5814  Tot=              9.7607
 Quadrupole moment (field-independent basis, Debye-Ang):
   XX=            -50.9377   YY=            -28.8363   ZZ=            -81.2523
   XY=             -9.4874   XZ=             -3.7032   YZ=              4.7797

  Exact polarizability: 190.695  -4.164 151.808  -4.018   4.695  75.487
 Approx polarizability: 237.249 -13.689 184.484  -7.653   8.491 103.059

                      1                      2                      3
                      A                      A                      A
 Frequencies --     48.0656                61.5655                92.7752
 Red. masses --      4.7741                 3.1267                 3.8374
 Frc consts  --      0.0065                 0.0070                 0.0195
 IR Inten    --      3.3484                25.8254                14.0462

                      4                      5                      6
                      A                      A                      A
 Frequencies --    104.6397               149.5189               171.4845
 Red. masses --      4.7524                 2.1899                 1.5456
 Frc consts  --      0.0307                 0.0288                 0.0268
 IR Inten    --     11.3608                 2.9520                 8.1773

                      7                      8                      9
                      A                      A                      A
 Frequencies --    180.5402               204.4652               263.3375
 Red. masses --      3.3476                 2.6276                 1.1752
 Frc consts  --      0.0643                 0.0647                 0.0480
 IR Inten    --      2.6579                10.8111               115.5712

                     10                     11                     12
                      A                      A                      A
 Frequencies --    294.7731               337.7114               357.5261
 Red. masses --      6.1062                 4.2321                 4.2178
 Frc consts  --      0.3126                 0.2844                 0.3177
 IR Inten    --      0.1567                 6.8865                10.2046

                     13                     14                     15
                      A                      A                      A
 Frequencies --    395.0870               414.8000               486.6972
 Red. masses --      3.5100                 4.5990                 6.6410
 Frc consts  --      0.3228                 0.4662                 0.9268
 IR Inten    --      1.3600                15.6039                10.0811

                     16                     17                     18
                      A                      A                      A
 Frequencies --    501.3679               565.9816               592.5838
 Red. masses --      3.8846                 4.3213                 4.9071
 Frc consts  --      0.5753                 0.8156                 1.0153
 IR Inten    --     10.8089                 3.5900                15.6528

                     19                     20                     21
                      A                      A                      A
 Frequencies --    646.3271               711.0420               719.1429
 Red. masses --      6.7373                 2.8976                 4.8795
 Frc consts  --      1.6582                 0.8631                 1.4868
 IR Inten    --      7.3492                 2.6870                 9.7432

                     22                     23                     24
                      A                      A                      A
 Frequencies --    731.1089               764.1615               773.8911
 Red. masses --      6.6490                 3.5491                 1.6159
 Frc consts  --      2.0940                 1.2211                 0.5702
 IR Inten    --      0.0952                13.6673                73.8413

                     25                     26                     27
                      A                      A                      A
 Frequencies --    836.1767               882.6693               894.6118
 Red. masses --      1.6367                 1.3117                 6.6165
 Frc consts  --      0.6743                 0.6021                 3.1200
 IR Inten    --     25.8661                 3.3902                 2.3813

                     28                     29                     30
                      A                      A                      A
 Frequencies --    951.0489               964.5575               997.7940
 Red. masses --      3.6407                 1.3851                 2.6949
 Frc consts  --      1.9402                 0.7593                 1.5808
 IR Inten    --     18.4772                 1.7211                 5.2930

                     31                     32                     33
                      A                      A                      A
 Frequencies --   1022.2576              1048.0605              1055.2218
 Red. masses --      1.3145                 3.4751                 2.7079
 Frc consts  --      0.8093                 2.2490                 1.7765
 IR Inten    --      0.2733                36.7834                30.9273

                     34                     35                     36
                      A                      A                      A
 Frequencies --   1069.0224              1117.3781              1126.8915
 Red. masses --      5.6014                 3.3292                 2.3687
 Frc consts  --      3.7716                 2.4490                 1.7723
 IR Inten    --     37.4083                10.1655                19.3025

                     37                     38                     39
                      A                      A                      A
 Frequencies --   1178.9311              1186.6662              1198.7675
 Red. masses --      1.3396                 1.2728                 1.5541
 Frc consts  --      1.0970                 1.0560                 1.3159
 IR Inten    --      6.6879                 1.0868                 6.0183

                     40                     41                     42
                      A                      A                      A
 Frequencies --   1218.3608              1254.9553              1289.5928
 Red. masses --      1.6646                 2.8923                 1.4184
 Frc consts  --      1.4558                 2.6838                 1.3899
 IR Inten    --     21.4676                 5.3102                 0.9444

                     43                     44                     45
                      A                      A                      A
 Frequencies --   1322.5666              1350.4430              1362.0459
 Red. masses --      2.1109                 1.3207                 1.7620
 Frc consts  --      2.1755                 1.4191                 1.9260
 IR Inten    --    141.4486                24.9441                42.5231

                     46                     47                     48
                      A                      A                      A
 Frequencies --   1399.4755              1421.2697              1486.7804
 Red. masses --      1.1978                 2.6148                 1.7470
 Frc consts  --      1.3822                 3.1120                 2.2753
 IR Inten    --     46.2276               181.5785                37.4699

                     49                     50                     51
                      A                      A                      A
 Frequencies --   1489.5309              1494.7938              1498.5259
 Red. masses --      1.7606                 1.0435                 1.4728
 Frc consts  --      2.3015                 1.3737                 1.9486
 IR Inten    --     57.3122                14.8453                63.9876

                     52                     53                     54
                      A                      A                      A
 Frequencies --   1504.5626              1518.8184              1633.3808
 Red. masses --      1.0615                 2.7357                 1.1015
 Frc consts  --      1.4157                 3.7181                 1.7314
 IR Inten    --     11.3668                 4.1830                16.0825

                     55                     56                     57
                      A                      A                      A
 Frequencies --   1655.6608              1676.0868              1727.0402
 Red. masses --      5.3490                 7.4506                 9.3855
 Frc consts  --      8.6391                12.3321                16.4935
 IR Inten    --      5.7867               370.6727               337.2869

                     58                     59                     60
                      A                      A                      A
 Frequencies --   1770.4233              3092.9451              3159.9252
 Red. masses --      8.3187                 1.0301                 1.0899
 Frc consts  --     15.3624                 5.8058                 6.4122
 IR Inten    --      2.4420                12.5450                22.5372

                     61                     62                     63
                      A                      A                      A
 Frequencies --   3177.8240              3219.7728              3220.2180
 Red. masses --      1.1085                 1.1079                 1.0897
 Frc consts  --      6.5953                 6.7668                 6.6576
 IR Inten    --      4.2895                 3.1699                 0.1952

                     64                     65                     66
                      A                      A                      A
 Frequencies --   3236.9373              3241.2604              3258.0882
 Red. masses --      1.0937                 1.0977                 1.0973
 Frc consts  --      6.7520                 6.7947                 6.8626
 IR Inten    --      0.3460                 0.8849                43.3401

                     67                     68                     69
                      A                      A                      A
 Frequencies --   3350.1566              3413.0843              3778.4463
 Red. masses --      1.0511                 1.1005                 1.0690
 Frc consts  --      6.9509                 7.5532                 8.9916
 IR Inten    --     36.1721               140.0332               192.5180

 - Thermochemistry -
 -------------------
 Temperature     0.001 Kelvin.  Pressure   1.00000 Atm.
 Atom     1 has atomic number  6 and mass  12.00000

 Molecular mass:   191.08205 amu.
 Principal axes and moments of inertia in atomic units:
                           1         2         3
     Eigenvalues --  2369.586082823.947215081.91384
           X            0.99756   0.06979  -0.00229
           Y           -0.06977   0.99754   0.00674
           Z            0.00275  -0.00657   0.99997
 This molecule is an asymmetric top.
 Rotational symmetry number  1.
 Warning -- assumption of classical behavior for rotation
           may cause significant error
 Rotational temperatures (Kelvin)      0.03655     0.03067     0.01704
 Rotational constants (GHZ):           0.76163     0.63908     0.35513
 Zero-point vibrational energy     534261.9 (Joules/Mol)
                                  127.69167 (Kcal/Mol)
 Vibrational temperatures:     69.16    88.58   133.48   150.55   215.12
          (Kelvin)            246.73   259.76   294.18   378.88   424.11
                              485.89   514.40   568.44   596.80   700.25
                              721.36   814.32   852.60   929.92  1023.03
                             1034.69  1051.90  1099.46  1113.46  1203.07
                             1269.96  1287.15  1368.35  1387.78  1435.60
                             1470.80  1507.93  1518.23  1538.08  1607.66
                             1621.35  1696.22  1707.35  1724.76  1752.95
                             1805.60  1855.44  1902.88  1942.99  1959.68
                             2013.53  2044.89  2139.15  2143.10  2150.67
                             2156.04  2164.73  2185.24  2350.07  2382.13
                             2411.52  2484.83  2547.24  4450.06  4546.43
                             4572.18  4632.53  4633.18  4657.23  4663.45
                             4687.66  4820.13  4910.67  5436.34

 Zero-point correction=                           0.203490 (Hartree/Particle)
 Thermal correction to Energy=                    0.203490
 Thermal correction to Enthalpy=                  0.203490
 Thermal correction to Gibbs Free Energy=         0.203490
 Sum of electronic and zero-point Energies=           -646.989599
 Sum of electronic and thermal Energies=              -646.989599
 Sum of electronic and thermal Enthalpies=            -646.989599
 Sum of electronic and thermal Free Energies=         -646.989599

                     E (Thermal)             CV                S
                      KCal/Mol        Cal/Mol-Kelvin    Cal/Mol-Kelvin
 Total                  127.692              5.962            -26.652
 Electronic               0.000              0.000              0.000
 Translational            0.000              2.981            -20.975
 Rotational               0.000              2.981             -5.677
 Vibrational            127.692              0.000              0.000

 Optimization completed.
    -- Stationary point found.
 Normal termination of Gaussian 16 at Mon Oct 14 00:21:17 2019.
