 Gaussian 16, Revision A.03,
 Gaussian 16:  ES64L-G16RevA.03 25-Dec-2016

 -------------------------------------------------------------------
 #P opt freq m062x/6-311++g(d,p) geom=connectivity temperature=0.001
 -------------------------------------------------------------------

 -------------------
 Title Card Required
 -------------------
 Symbolic Z-matrix:
 Charge =  0 Multiplicity = 1

 SCF Done:  E(RM062X) =  -170.975416001     A.U. after   11 cycles
 SCF Done:  E(RM062X) =  -170.982622812     A.U. after   11 cycles
 SCF Done:  E(RM062X) =  -170.990194672     A.U. after   12 cycles
 SCF Done:  E(RM062X) =  -170.966402746     A.U. after   12 cycles
 SCF Done:  E(RM062X) =  -171.000266815     A.U. after   11 cycles
 SCF Done:  E(RM062X) =  -171.001667105     A.U. after   11 cycles
 SCF Done:  E(RM062X) =  -171.001609833     A.U. after   11 cycles
 SCF Done:  E(RM062X) =  -171.002645446     A.U. after   10 cycles
 SCF Done:  E(RM062X) =  -171.002820656     A.U. after   10 cycles
 SCF Done:  E(RM062X) =  -171.002847047     A.U. after    9 cycles
 SCF Done:  E(RM062X) =  -171.002850690     A.U. after    8 cycles
 SCF Done:  E(RM062X) =  -171.002851155     A.U. after    7 cycles
 SCF Done:  E(RM062X) =  -171.002851190     A.U. after    7 cycles
 Optimization completed.
    -- Stationary point found.
 Normal termination of Gaussian 16 at Sun Oct 13 23:52:15 2019.

 ----------------------------------------------------------------------
 #P Geom=AllCheck Guess=TCheck SCRF=Check GenChk RM062X/6-311++G(d,p) F
 req
 ----------------------------------------------------------------------

 Structure from the checkpoint file:  "8.chk"
 -------------------
 Title Card Required
 -------------------
 Charge =  0 Multiplicity = 1

                         Standard orientation:
 ---------------------------------------------------------------------
 Center     Atomic      Atomic             Coordinates (Angstroms)
 Number     Number       Type             X           Y           Z
 ---------------------------------------------------------------------
      1          6           0        1.161369   -0.228789    0.003969
      2          7           0       -0.051602    0.563058   -0.151294
      3          8           0       -1.156395   -0.291631    0.127176
      4          1           0        1.223447   -0.948035   -0.812791
      5          1           0        2.013800    0.450061   -0.063042
      6          1           0        1.194492   -0.768335    0.956824
      7          1           0       -0.084094    1.251567    0.595948
      8          1           0       -1.703488   -0.220878   -0.659105
 ---------------------------------------------------------------------

 SCF Done:  E(RM062X) =  -171.002851190     A.U. after    1 cycles

 The electronic state is 1-A.
 Alpha  occ. eigenvalues --  -19.64768 -14.78776 -10.55667  -1.18983  -0.94261
 Alpha  occ. eigenvalues --   -0.75180  -0.59829  -0.56600  -0.51416  -0.47483
 Alpha  occ. eigenvalues --   -0.45222  -0.37621  -0.31372
 Alpha virt. eigenvalues --   -0.00117   0.01630   0.02062   0.03698   0.05055
 Alpha virt. eigenvalues --    0.07533   0.10017   0.10875   0.12438   0.13611
 Alpha virt. eigenvalues --    0.15715   0.17407   0.18650   0.20785   0.21664

 Mulliken charges:
               1
     1  C   -0.413794
     2  N   -0.352790
     3  O   -0.248208
     4  H    0.161120
     5  H    0.151918
     6  H    0.152619
     7  H    0.264211
     8  H    0.284925
 Sum of Mulliken charges =   0.00000

 Dipole moment (field-independent basis, Debye):
    X=              0.6169    Y=              0.4354    Z=             -0.1762  Tot=              0.7754
 Quadrupole moment (field-independent basis, Debye-Ang):
   XX=            -17.1039   YY=            -19.6437   ZZ=            -19.3672
   XY=             -0.2749   XZ=              2.5692   YZ=              2.4823

  Exact polarizability:  31.640   0.783  26.555   0.954   0.164  24.663
 Approx polarizability:  31.973   1.763  29.280   1.013   0.467  27.642

                      1                      2                      3
                      A                      A                      A
 Frequencies --    265.8101               345.9994               450.8705
 Red. masses --      1.1573                 1.1715                 2.6362
 Frc consts  --      0.0482                 0.0826                 0.3157
 IR Inten    --      0.8128               123.5257                 9.0308

                      4                      5                      6
                      A                      A                      A
 Frequencies --    903.3957               981.3292              1112.7027
 Red. masses --      2.5107                 1.2454                 4.9516
 Frc consts  --      1.2073                 0.7066                 3.6121
 IR Inten    --     59.5089                31.4693                40.4108

                      7                      8                      9
                      A                      A                      A
 Frequencies --   1162.3956              1234.3195              1378.3895
 Red. masses --      1.4477                 1.5886                 1.2406
 Frc consts  --      1.1525                 1.4260                 1.3887
 IR Inten    --      6.1866                20.1319                37.8257

                     10                     11                     12
                      A                      A                      A
 Frequencies --   1446.7432              1482.8067              1507.6143
 Red. masses --      1.2047                 1.0417                 1.0777
 Frc consts  --      1.4856                 1.3495                 1.4432
 IR Inten    --      0.0864                 7.6266                 4.8548

                     13                     14                     15
                      A                      A                      A
 Frequencies --   1531.1693              3041.9848              3122.8405
 Red. masses --      1.0562                 1.0407                 1.0950
 Frc consts  --      1.4589                 5.6739                 6.2919
 IR Inten    --      3.5153                38.0174                21.9322

                     16                     17                     18
                      A                      A                      A
 Frequencies --   3153.8746              3526.2006              3895.7953
 Red. masses --      1.1041                 1.0757                 1.0683
 Frc consts  --      6.4704                 7.8803                 9.5533
 IR Inten    --     16.2868                 2.1789                66.4884

 - Thermochemistry -
 -------------------
 Temperature     0.001 Kelvin.  Pressure   1.00000 Atm.
 Atom     1 has atomic number  6 and mass  12.00000

 Molecular mass:    47.03711 amu.
 Principal axes and moments of inertia in atomic units:
                           1         2         3
     Eigenvalues --    45.27352 179.66927 204.71766
           X            0.99939  -0.02746   0.02162
           Y            0.02456   0.99188   0.12481
           Z           -0.02487  -0.12421   0.99194
 This molecule is an asymmetric top.
 Rotational symmetry number  1.
 Rotational temperatures (Kelvin)      1.91313     0.48207     0.42309
 Rotational constants (GHZ):          39.86307    10.04480     8.81576
 Zero-point vibrational energy     182695.1 (Joules/Mol)
                                   43.66519 (Kcal/Mol)
 Vibrational temperatures:    382.44   497.82   648.70  1299.78  1411.91
          (Kelvin)           1600.93  1672.43  1775.91  1983.20  2081.54
                             2133.43  2169.12  2203.01  4376.74  4493.07
                             4537.72  5073.42  5605.18

 Zero-point correction=                           0.069585 (Hartree/Particle)
 Thermal correction to Energy=                    0.069585
 Thermal correction to Enthalpy=                  0.069585
 Thermal correction to Gibbs Free Energy=         0.069585
 Sum of electronic and zero-point Energies=           -170.933266
 Sum of electronic and thermal Energies=              -170.933266
 Sum of electronic and thermal Enthalpies=            -170.933266
 Sum of electronic and thermal Free Energies=         -170.933266

                     E (Thermal)             CV                S
                      KCal/Mol        Cal/Mol-Kelvin    Cal/Mol-Kelvin
 Total                   43.665              5.962            -40.691
 Electronic               0.000              0.000              0.000
 Translational            0.000              2.981            -25.154
 Rotational               0.000              2.981            -15.537
 Vibrational             43.665              0.000              0.000

 Optimization completed.
    -- Stationary point found.
 Normal termination of Gaussian 16 at Sun Oct 13 23:52:25 2019.
