 Gaussian 16, Revision A.03,
 Gaussian 16:  ES64L-G16RevA.03 25-Dec-2016

 -------------------------------------------------------------------
 #P opt freq m062x/6-311++g(d,p) geom=connectivity temperature=0.001
 -------------------------------------------------------------------

 -------------------
 Title Card Required
 -------------------
 Symbolic Z-matrix:
 Charge =  1 Multiplicity = 1

 SCF Done:  E(RM062X) =  -171.329198781     A.U. after   11 cycles
 SCF Done:  E(RM062X) =  -171.334021894     A.U. after   11 cycles
 SCF Done:  E(RM062X) =  -171.334907076     A.U. after   10 cycles
 SCF Done:  E(RM062X) =  -171.335557062     A.U. after   10 cycles
 SCF Done:  E(RM062X) =  -171.335783204     A.U. after    9 cycles
 SCF Done:  E(RM062X) =  -171.335821618     A.U. after    9 cycles
 SCF Done:  E(RM062X) =  -171.335825172     A.U. after    8 cycles
 SCF Done:  E(RM062X) =  -171.335826729     A.U. after    8 cycles
 SCF Done:  E(RM062X) =  -171.335831613     A.U. after    8 cycles
 SCF Done:  E(RM062X) =  -171.335855702     A.U. after   10 cycles
 SCF Done:  E(RM062X) =  -171.335845473     A.U. after   11 cycles
 SCF Done:  E(RM062X) =  -171.335920048     A.U. after   10 cycles
 SCF Done:  E(RM062X) =  -171.335951909     A.U. after   10 cycles
 SCF Done:  E(RM062X) =  -171.336182337     A.U. after   11 cycles
 SCF Done:  E(RM062X) =  -171.336604663     A.U. after   10 cycles
 SCF Done:  E(RM062X) =  -171.337782529     A.U. after   10 cycles
 SCF Done:  E(RM062X) =  -171.338082122     A.U. after   10 cycles
 SCF Done:  E(RM062X) =  -171.337979477     A.U. after   10 cycles
 SCF Done:  E(RM062X) =  -171.338112795     A.U. after    8 cycles
 Optimization completed.
    -- Stationary point found.
 Normal termination of Gaussian 16 at Sun Oct 13 23:52:43 2019.

 ----------------------------------------------------------------------
 #P Geom=AllCheck Guess=TCheck SCRF=Check GenChk RM062X/6-311++G(d,p) F
 req
 ----------------------------------------------------------------------

 Structure from the checkpoint file:  "8_p.chk"
 -------------------
 Title Card Required
 -------------------
 Charge =  1 Multiplicity = 1

                         Standard orientation:
 ---------------------------------------------------------------------
 Center     Atomic      Atomic             Coordinates (Angstroms)
 Number     Number       Type             X           Y           Z
 ---------------------------------------------------------------------
      1          6           0        1.206575   -0.245623    0.000175
      2          7           0       -0.077342    0.522858   -0.000071
      3          8           0       -1.116560   -0.406543   -0.000277
      4          1           0        1.215512   -0.859773   -0.896842
      5          1           0        2.023891    0.474172    0.000096
      6          1           0        1.214957   -0.860199    0.896863
      7          1           0       -0.130175    1.118039    0.836369
      8          1           0       -1.959685    0.075895    0.001759
      9          1           0       -0.130077    1.117936   -0.836591
 ---------------------------------------------------------------------

 SCF Done:  E(RM062X) =  -171.338112795     A.U. after    1 cycles

 The electronic state is 1-A.
 Alpha  occ. eigenvalues --  -19.91887 -15.15196 -10.79979  -1.49479  -1.25254
 Alpha  occ. eigenvalues --   -1.03030  -0.92337  -0.92040  -0.79473  -0.71200
 Alpha  occ. eigenvalues --   -0.70129  -0.69558  -0.64699
 Alpha virt. eigenvalues --   -0.19305  -0.15731  -0.14233  -0.12653  -0.10139
 Alpha virt. eigenvalues --   -0.08748  -0.07613  -0.07271  -0.05565  -0.05227
 Alpha virt. eigenvalues --   -0.04177  -0.01758  -0.00541   0.00064   0.01113

 Mulliken charges:
               1
     1  C   -0.407497
     2  N   -0.386514
     3  O   -0.014136
     4  H    0.249146
     5  H    0.231887
     6  H    0.249114
     7  H    0.375134
     8  H    0.327631
     9  H    0.375234
 Sum of Mulliken charges =   1.00000

 Dipole moment (field-independent basis, Debye):
    X=             -0.0327    Y=              3.4224    Z=              0.0037  Tot=              3.4226
 Quadrupole moment (field-independent basis, Debye-Ang):
   XX=             -8.8526   YY=            -14.3526   ZZ=            -15.5131
   XY=             -2.5257   XZ=             -0.0097   YZ=             -0.0004

  Exact polarizability:  27.875   0.686  22.760  -0.004   0.001  20.791
 Approx polarizability:  28.617   1.472  26.173  -0.005   0.002  23.625

                      1                      2                      3
                      A                      A                      A
 Frequencies --    232.2039               284.3323               442.8222
 Red. masses --      1.1727                 1.0664                 2.9223
 Frc consts  --      0.0373                 0.0508                 0.3376
 IR Inten    --     83.2249                82.4317                20.1777

                      4                      5                      6
                      A                      A                      A
 Frequencies --    895.9375               917.7651              1065.9075
 Red. masses --      1.1032                 3.2008                 3.7779
 Frc consts  --      0.5217                 1.5884                 2.5290
 IR Inten    --      7.0246                 2.1706                18.0308

                      7                      8                      9
                      A                      A                      A
 Frequencies --   1191.7222              1232.3158              1388.6826
 Red. masses --      1.7167                 1.4339                 1.0879
 Frc consts  --      1.4365                 1.2830                 1.2361
 IR Inten    --      2.8736                 0.1310                 1.5282

                     10                     11                     12
                      A                      A                      A
 Frequencies --   1404.0340              1457.3861              1481.6946
 Red. masses --      1.1130                 1.1560                 1.0271
 Frc consts  --      1.2927                 1.4466                 1.3286
 IR Inten    --     40.9254                 5.0163                20.5674

                     13                     14                     15
                      A                      A                      A
 Frequencies --   1498.3659              1515.4338              1657.7351
 Red. masses --      1.1730                 1.1609                 1.0711
 Frc consts  --      1.5516                 1.5707                 1.7342
 IR Inten    --     12.2644                45.9550                43.7708

                     16                     17                     18
                      A                      A                      A
 Frequencies --   3104.1004              3209.6767              3222.6079
 Red. masses --      1.0297                 1.1101                 1.1118
 Frc consts  --      5.8455                 6.7381                 6.8030
 IR Inten    --      2.6724                 5.4175                 5.0510

                     19                     20                     21
                      A                      A                      A
 Frequencies --   3387.8923              3450.5491              3778.5716
 Red. masses --      1.0516                 1.1015                 1.0693
 Frc consts  --      7.1115                 7.7267                 8.9951
 IR Inten    --     54.3848               110.2624               177.2672

 - Thermochemistry -
 -------------------
 Temperature     0.001 Kelvin.  Pressure   1.00000 Atm.
 Atom     1 has atomic number  6 and mass  12.00000

 Molecular mass:    48.04494 amu.
 Principal axes and moments of inertia in atomic units:
                           1         2         3
     Eigenvalues --    51.37128 183.89257 213.61156
           X            0.99917  -0.04064  -0.00008
           Y            0.04064   0.99917  -0.00003
           Z            0.00008   0.00002   1.00000
 This molecule is an asymmetric top.
 Rotational symmetry number  1.
 Rotational temperatures (Kelvin)      1.68604     0.47100     0.40547
 Rotational constants (GHZ):          35.13133     9.81411     8.44871
 Zero-point vibrational energy     220230.9 (Joules/Mol)
                                   52.63646 (Kcal/Mol)
 Vibrational temperatures:    334.09   409.09   637.12  1289.05  1320.46
          (Kelvin)           1533.60  1714.62  1773.03  1998.00  2020.09
                             2096.85  2131.83  2155.81  2180.37  2385.11
                             4466.11  4618.01  4636.61  4874.42  4964.57
                             5436.52

 Zero-point correction=                           0.083882 (Hartree/Particle)
 Thermal correction to Energy=                    0.083882
 Thermal correction to Enthalpy=                  0.083882
 Thermal correction to Gibbs Free Energy=         0.083882
 Sum of electronic and zero-point Energies=           -171.254231
 Sum of electronic and thermal Energies=              -171.254231
 Sum of electronic and thermal Enthalpies=            -171.254231
 Sum of electronic and thermal Free Energies=         -171.254231

                     E (Thermal)             CV                S
                      KCal/Mol        Cal/Mol-Kelvin    Cal/Mol-Kelvin
 Total                   52.636              5.962            -40.437
 Electronic               0.000              0.000              0.000
 Translational            0.000              2.981            -25.091
 Rotational               0.000              2.981            -15.347
 Vibrational             52.636              0.000              0.000

                           ! Non-Optimized Parameters !
 Normal termination of Gaussian 16 at Sun Oct 13 23:52:55 2019.
