 Gaussian 16, Revision A.03,
 Gaussian 16:  ES64L-G16RevA.03 25-Dec-2016

 -------------------------------------------------------------------
 #p opt freq m062x/6-311++g(d,p) geom=connectivity temperature=0.001
 -------------------------------------------------------------------

 -------------------
 Title Card Required
 -------------------
 Symbolic Z-matrix:
 Charge =  1 Multiplicity = 1

 SCF Done:  E(RM062X) =  -171.262955513     A.U. after   12 cycles
 SCF Done:  E(RM062X) =  -171.272871289     A.U. after   11 cycles
 SCF Done:  E(RM062X) =  -171.275568097     A.U. after   11 cycles
 SCF Done:  E(RM062X) =  -171.279959752     A.U. after   11 cycles
 SCF Done:  E(RM062X) =  -171.283116964     A.U. after   11 cycles
 SCF Done:  E(RM062X) =  -171.287268883     A.U. after   11 cycles
 SCF Done:  E(RM062X) =  -171.288686467     A.U. after   11 cycles
 SCF Done:  E(RM062X) =  -171.290308580     A.U. after   11 cycles
 SCF Done:  E(RM062X) =  -171.290940456     A.U. after   10 cycles
 SCF Done:  E(RM062X) =  -171.291049391     A.U. after   10 cycles
 SCF Done:  E(RM062X) =  -171.291070069     A.U. after    9 cycles
 SCF Done:  E(RM062X) =  -171.291078202     A.U. after    9 cycles
 SCF Done:  E(RM062X) =  -171.291079539     A.U. after    8 cycles
 SCF Done:  E(RM062X) =  -171.291079798     A.U. after    8 cycles
 Optimization completed.
    -- Stationary point found.
 Normal termination of Gaussian 16 at Mon Dec 30 16:45:04 2019.

 ----------------------------------------------------------------------
 #P Geom=AllCheck Guess=TCheck SCRF=Check GenChk RM062X/6-311++G(d,p) F
 req
 ----------------------------------------------------------------------

 Structure from the checkpoint file:  "8_p_b.chk"
 -------------------
 Title Card Required
 -------------------
 Charge =  1 Multiplicity = 1

                         Standard orientation:
 ---------------------------------------------------------------------
 Center     Atomic      Atomic             Coordinates (Angstroms)
 Number     Number       Type             X           Y           Z
 ---------------------------------------------------------------------
      1          6           0        1.231496   -0.263312   -0.006281
      2          7           0        0.064686    0.610573   -0.097679
      3          8           0       -1.141239   -0.265104   -0.031987
      4          1           0        1.268021   -0.901673   -0.885935
      5          1           0        2.077732    0.428329   -0.041391
      6          1           0        1.279148   -0.845466    0.916887
      7          1           0       -0.031576    1.203148    0.730135
      8          1           0       -1.851035    0.110568   -0.586697
      9          1           0       -1.454154   -0.568218    0.844338
 ---------------------------------------------------------------------

 SCF Done:  E(RM062X) =  -171.291079798     A.U. after    1 cycles

 The electronic state is 1-A.
 Alpha  occ. eigenvalues --  -20.01596 -15.06035 -10.76460  -1.53480  -1.23156
 Alpha  occ. eigenvalues --   -0.99462  -0.97489  -0.89906  -0.79419  -0.73461
 Alpha  occ. eigenvalues --   -0.69151  -0.66690  -0.57782
 Alpha virt. eigenvalues --   -0.21454  -0.16896  -0.14264  -0.12055  -0.11224
 Alpha virt. eigenvalues --   -0.08192  -0.07864  -0.07028  -0.05239  -0.05055
 Alpha virt. eigenvalues --   -0.03435  -0.00588   0.00010   0.00940   0.02155

 Mulliken charges:
               1
     1  C   -0.465809
     2  N   -0.235804
     3  O   -0.089771
     4  H    0.238300
     5  H    0.242248
     6  H    0.191615
     7  H    0.327768
     8  H    0.413533
     9  H    0.377920
 Sum of Mulliken charges =   1.00000

 Dipole moment (field-independent basis, Debye):
    X=             -3.2724    Y=             -0.1528    Z=              1.9079  Tot=              3.7910
 Quadrupole moment (field-independent basis, Debye-Ang):
   XX=             -4.4916   YY=            -16.5870   ZZ=            -15.1453
   XY=              0.5276   XZ=             -0.5209   YZ=              0.6587

  Exact polarizability:  30.665   0.773  23.240  -0.307  -0.206  22.352
 Approx polarizability:  31.604   1.702  26.353  -0.226  -0.258  25.644

                      1                      2                      3
                      A                      A                      A
 Frequencies --    264.5527               277.3757               422.1441
 Red. masses --      1.0808                 1.1390                 2.4641
 Frc consts  --      0.0446                 0.0516                 0.2587
 IR Inten    --     12.9697                38.3075                16.2207

                      4                      5                      6
                      A                      A                      A
 Frequencies --    626.9300               740.6751               957.5739
 Red. masses --      2.0186                 1.9334                 1.2259
 Frc consts  --      0.4675                 0.6249                 0.6623
 IR Inten    --    174.9733               154.9328                29.2739

                      7                      8                      9
                      A                      A                      A
 Frequencies --    988.3861              1053.8309              1210.0200
 Red. masses --      2.2206                 1.1582                 1.8655
 Frc consts  --      1.2781                 0.7578                 1.6093
 IR Inten    --     58.0852                 4.3257                 4.5281

                     10                     11                     12
                      A                      A                      A
 Frequencies --   1233.2105              1437.5621              1472.5657
 Red. masses --      1.4510                 1.1248                 1.0377
 Frc consts  --      1.3002                 1.3696                 1.3258
 IR Inten    --     16.2129                11.1635                20.8559

                     13                     14                     15
                      A                      A                      A
 Frequencies --   1489.0338              1529.1524              1639.3769
 Red. masses --      1.0895                 1.0795                 1.0951
 Frc consts  --      1.4232                 1.4872                 1.7341
 IR Inten    --      2.9336                 7.4330               107.8139

                     16                     17                     18
                      A                      A                      A
 Frequencies --   3064.4252              3145.6199              3192.4445
 Red. masses --      1.0340                 1.1055                 1.1060
 Frc consts  --      5.7211                 6.4452                 6.6413
 IR Inten    --      7.8151                10.1117                 1.7434

                     19                     20                     21
                      A                      A                      A
 Frequencies --   3489.6994              3636.3688              3752.9525
 Red. masses --      1.0782                 1.0425                 1.0912
 Frc consts  --      7.7364                 8.1220                 9.0554
 IR Inten    --     36.6306               225.2766               394.0689

 - Thermochemistry -
 -------------------
 Temperature     0.001 Kelvin.  Pressure   1.00000 Atm.
 Atom     1 has atomic number  6 and mass  12.00000

 Molecular mass:    48.04494 amu.
 Principal axes and moments of inertia in atomic units:
                           1         2         3
     Eigenvalues --    50.17365 198.67340 224.86244
           X            0.99983  -0.01805  -0.00425
           Y            0.01822   0.99883   0.04482
           Z            0.00344  -0.04489   0.99899
 This molecule is an asymmetric top.
 Rotational symmetry number  1.
 Rotational temperatures (Kelvin)      1.72628     0.43596     0.38519
 Rotational constants (GHZ):          35.96990     9.08396     8.02598
 Zero-point vibrational energy     213078.2 (Joules/Mol)
                                   50.92692 (Kcal/Mol)
 Vibrational temperatures:    380.63   399.08   607.37   902.01  1065.67
          (Kelvin)           1377.74  1422.07  1516.23  1740.95  1774.31
                             2068.33  2118.69  2142.39  2200.11  2358.70
                             4409.02  4525.85  4593.22  5020.90  5231.92
                             5399.66

 Zero-point correction=                           0.081157 (Hartree/Particle)
 Thermal correction to Energy=                    0.081157
 Thermal correction to Enthalpy=                  0.081157
 Thermal correction to Gibbs Free Energy=         0.081157
 Sum of electronic and zero-point Energies=           -171.209923
 Sum of electronic and thermal Energies=              -171.209923
 Sum of electronic and thermal Enthalpies=            -171.209923
 Sum of electronic and thermal Free Energies=         -171.209923

                     E (Thermal)             CV                S
                      KCal/Mol        Cal/Mol-Kelvin    Cal/Mol-Kelvin
 Total                   50.927              5.962            -40.333
 Electronic               0.000              0.000              0.000
 Translational            0.000              2.981            -25.091
 Rotational               0.000              2.981            -15.242
 Vibrational             50.927              0.000              0.000

 Optimization completed.
    -- Stationary point found.
 Normal termination of Gaussian 16 at Mon Dec 30 16:45:16 2019.
