 Gaussian 16, Revision A.03,
 Gaussian 16:  ES64L-G16RevA.03 25-Dec-2016

 -------------------------------------------------------------------
 #P opt freq m062x/6-311++g(d,p) geom=connectivity temperature=0.001
 -------------------------------------------------------------------

 -------------------
 Title Card Required
 -------------------
 Symbolic Z-matrix:
 Charge =  0 Multiplicity = 1

 SCF Done:  E(RM062X) =  -56.5454977873     A.U. after    9 cycles
 SCF Done:  E(RM062X) =  -56.5458986631     A.U. after    9 cycles
 SCF Done:  E(RM062X) =  -56.5459539191     A.U. after    8 cycles
 SCF Done:  E(RM062X) =  -56.5459569028     A.U. after    7 cycles
 Optimization completed.
    -- Stationary point found.
 Normal termination of Gaussian 16 at Sun Oct 13 19:37:28 2019.

 ----------------------------------------------------------------------
 #P Geom=AllCheck Guess=TCheck SCRF=Check GenChk RM062X/6-311++G(d,p) F
 req
 ----------------------------------------------------------------------

 Structure from the checkpoint file:  "ammonia.chk"
 -------------------
 Title Card Required
 -------------------
 Charge =  0 Multiplicity = 1

                         Standard orientation:
 ---------------------------------------------------------------------
 Center     Atomic      Atomic             Coordinates (Angstroms)
 Number     Number       Type             X           Y           Z
 ---------------------------------------------------------------------
      1          7           0        0.000000    0.000000    0.109683
      2          1           0       -0.000000    0.944829   -0.255928
      3          1           0       -0.818246   -0.472414   -0.255928
      4          1           0        0.818246   -0.472414   -0.255928
 ---------------------------------------------------------------------

 SCF Done:  E(RM062X) =  -56.5459569028     A.U. after    1 cycles

 The electronic state is 1-A1.
 Alpha  occ. eigenvalues --  -14.72300  -0.95632  -0.53453  -0.53453  -0.33611
 Alpha virt. eigenvalues --   -0.00276   0.03429   0.03429   0.12647   0.15614
 Alpha virt. eigenvalues --    0.15614   0.17651   0.22904   0.22904   0.24680
 Alpha virt. eigenvalues --    0.52939   0.52939   0.67604   0.81942   0.85612

 Mulliken charges:
               1
     1  N   -0.706958
     2  H    0.235653
     3  H    0.235653
     4  H    0.235653
 Sum of Mulliken charges =   0.00000

 Dipole moment (field-independent basis, Debye):
    X=              0.0000    Y=              0.0000    Z=             -1.7253  Tot=              1.7253
 Quadrupole moment (field-independent basis, Debye-Ang):
   XX=             -6.2574   YY=             -6.2574   ZZ=             -9.6173
   XY=             -0.0000   XZ=             -0.0000   YZ=             -0.0000

  Exact polarizability:  10.795   0.000  10.797  -0.000  -0.002  11.992
 Approx polarizability:  11.202  -0.000  11.202  -0.000  -0.000  11.185

                      1                      2                      3
                     A1                      E                      E
 Frequencies --   1026.4898              1670.2613              1670.2756
 Red. masses --      1.1824                 1.0674                 1.0674
 Frc consts  --      0.7341                 1.7544                 1.7545
 IR Inten    --    218.6720                29.2205                29.1778

                      4                      5                      6
                     A1                      E                      E
 Frequencies --   3523.9558              3657.8088              3657.8410
 Red. masses --      1.0254                 1.0912                 1.0912
 Frc consts  --      7.5024                 8.6021                 8.6023
 IR Inten    --      0.3521                 8.5108                 8.5987

 - Thermochemistry -
 -------------------
 Temperature     0.001 Kelvin.  Pressure   1.00000 Atm.
 Atom     1 has atomic number  7 and mass  14.00307

 Molecular mass:    17.02655 amu.
 Principal axes and moments of inertia in atomic units:
                           1         2         3
     Eigenvalues --     6.00623   6.00623   9.63852
           X            0.82161   0.57005   0.00000
           Y           -0.57005   0.82161   0.00000
           Z            0.00000  -0.00000   1.00000
 This molecule is an oblate symmetric top.
 Rotational symmetry number  3.
 Rotational temperatures (Kelvin)     14.42068    14.42068     8.98622
 Rotational constants (GHZ):         300.47829   300.47829   187.24253
 Zero-point vibrational energy      90955.9 (Joules/Mol)
                                   21.73897 (Kcal/Mol)
 Vibrational temperatures:   1476.89  2403.13  2403.15  5070.19  5262.77
          (Kelvin)           5262.82

 Zero-point correction=                           0.034643 (Hartree/Particle)
 Thermal correction to Energy=                    0.034643
 Thermal correction to Enthalpy=                  0.034643
 Thermal correction to Gibbs Free Energy=         0.034643
 Sum of electronic and zero-point Energies=            -56.511314
 Sum of electronic and thermal Energies=               -56.511314
 Sum of electronic and thermal Enthalpies=             -56.511314
 Sum of electronic and thermal Free Energies=          -56.511314

                     E (Thermal)             CV                S
                      KCal/Mol        Cal/Mol-Kelvin    Cal/Mol-Kelvin
 Total                   21.739              5.962            -54.323
 Electronic               0.000              0.000              0.000
 Translational            0.000              2.981            -28.183
 Rotational               0.000              2.981            -26.140
 Vibrational             21.739              0.000              0.000

 Optimization completed.
    -- Stationary point found.
 Normal termination of Gaussian 16 at Sun Oct 13 19:38:38 2019.
