 Gaussian 16, Revision A.03,
 Gaussian 16:  ES64L-G16RevA.03 25-Dec-2016

 -------------------------------------------------------------------
 #P opt freq m062x/6-311++g(d,p) geom=connectivity temperature=0.001
 -------------------------------------------------------------------

 -------------------
 Title Card Required
 -------------------
 Symbolic Z-matrix:
 Charge =  1 Multiplicity = 1

 SCF Done:  E(RM062X) =  -56.8794047472     A.U. after    7 cycles
 SCF Done:  E(RM062X) =  -56.8816029126     A.U. after    7 cycles
 Optimization completed.
    -- Stationary point found.
 Normal termination of Gaussian 16 at Sun Oct 13 19:40:51 2019.

 ----------------------------------------------------------------------
 #P Geom=AllCheck Guess=TCheck SCRF=Check GenChk RM062X/6-311++G(d,p) F
 req
 ----------------------------------------------------------------------

 Structure from the checkpoint file:  "ammonia_p.chk"
 -------------------
 Title Card Required
 -------------------
 Charge =  1 Multiplicity = 1

                         Standard orientation:
 ---------------------------------------------------------------------
 Center     Atomic      Atomic             Coordinates (Angstroms)
 Number     Number       Type             X           Y           Z
 ---------------------------------------------------------------------
      1          7           0        0.000000    0.000000    0.000000
      2          1           0        0.592057    0.592057    0.592057
      3          1           0       -0.592057   -0.592057    0.592057
      4          1           0       -0.592057    0.592057   -0.592057
      5          1           0        0.592057   -0.592057   -0.592057
 ---------------------------------------------------------------------

 SCF Done:  E(RM062X) =  -56.8816029126     A.U. after    1 cycles

 The electronic state is 1-A1.
 Alpha  occ. eigenvalues --  -15.11781  -1.35278  -0.89559  -0.89559  -0.89559
 Alpha virt. eigenvalues --   -0.20985  -0.13571  -0.13571  -0.13571  -0.08486
 Alpha virt. eigenvalues --   -0.08486  -0.08486  -0.03308   0.00952   0.00952
 Alpha virt. eigenvalues --    0.00952   0.09705   0.24405   0.24405   0.24405

 Mulliken charges:
               1
     1  N   -0.516092
     2  H    0.379023
     3  H    0.379023
     4  H    0.379023
     5  H    0.379023
 Sum of Mulliken charges =   1.00000

 Dipole moment (field-independent basis, Debye):
    X=              0.0000    Y=             -0.0000    Z=              0.0000  Tot=              0.0000
 Quadrupole moment (field-independent basis, Debye-Ang):
   XX=             -4.3531   YY=             -4.3531   ZZ=             -4.3531
   XY=              0.0000   XZ=              0.0000   YZ=             -0.0000

  Exact polarizability:   8.215  -0.000   8.215  -0.000  -0.000   8.215
 Approx polarizability:   8.691   0.000   8.691   0.000  -0.000   8.691

                      1                      2                      3
                     T2                     T2                     T2
 Frequencies --   1483.7605              1483.7605              1483.7605
 Red. masses --      1.1572                 1.1572                 1.1572
 Frc consts  --      1.5011                 1.5011                 1.5011
 IR Inten    --    167.3755               167.3755               167.3755

                      4                      5                      6
                      E                      E                     A1
 Frequencies --   1724.7305              1724.7305              3392.9564
 Red. masses --      1.0078                 1.0078                 1.0078
 Frc consts  --      1.7664                 1.7664                 6.8358
 IR Inten    --      0.0000                 0.0000                 0.0000

                      7                      8                      9
                     T2                     T2                     T2
 Frequencies --   3504.3916              3504.3916              3504.3917
 Red. masses --      1.0935                 1.0935                 1.0935
 Frc consts  --      7.9121                 7.9121                 7.9121
 IR Inten    --    213.7587               213.7587               213.7587

 - Thermochemistry -
 -------------------
 Temperature     0.001 Kelvin.  Pressure   1.00000 Atm.
 Atom     1 has atomic number  7 and mass  14.00307

 Molecular mass:    18.03437 amu.
 Principal axes and moments of inertia in atomic units:
                           1         2         3
     Eigenvalues --    10.09253  10.09253  10.09253
           X            0.00000   0.56264   0.82670
           Y            0.00000   0.82670  -0.56264
           Z            1.00000  -0.00000  -0.00000
 This molecule is a spherical top.
 Rotational symmetry number 12.
 Rotational temperatures (Kelvin)      8.58199     8.58199     8.58199
 Rotational constants (GHZ):         178.81956   178.81956   178.81956
 Zero-point vibrational energy     130434.1 (Joules/Mol)
                                   31.17449 (Kcal/Mol)
 Vibrational temperatures:   2134.80  2134.80  2134.80  2481.50  2481.50
          (Kelvin)           4881.71  5042.04  5042.04  5042.04

 Zero-point correction=                           0.049680 (Hartree/Particle)
 Thermal correction to Energy=                    0.049680
 Thermal correction to Enthalpy=                  0.049680
 Thermal correction to Gibbs Free Energy=         0.049680
 Sum of electronic and zero-point Energies=            -56.831923
 Sum of electronic and thermal Energies=               -56.831923
 Sum of electronic and thermal Enthalpies=             -56.831923
 Sum of electronic and thermal Free Energies=          -56.831923

                     E (Thermal)             CV                S
                      KCal/Mol        Cal/Mol-Kelvin    Cal/Mol-Kelvin
 Total                   31.174              5.962            -55.830
 Electronic               0.000              0.000              0.000
 Translational            0.000              2.981            -28.011
 Rotational               0.000              2.981            -27.818
 Vibrational             31.174              0.000              0.000

 Optimization completed.
    -- Stationary point found.
 Normal termination of Gaussian 16 at Sun Oct 13 19:42:28 2019.
