 Gaussian 16, Revision A.03,
 Gaussian 16:  ES64L-G16RevA.03 25-Dec-2016

 -------------------------------------------------------------------
 #p opt freq m062x/6-311++g(d,p) geom=connectivity temperature=0.001
 -------------------------------------------------------------------

 -------------------
 Title Card Required
 -------------------
 Symbolic Z-matrix:
 Charge =  1 Multiplicity = 1

 SCF Done:  E(RM062X) =  -232.473522222     A.U. after   13 cycles
 SCF Done:  E(RM062X) =  -232.487876670     A.U. after   12 cycles
 SCF Done:  E(RM062X) =  -232.488448719     A.U. after   10 cycles
 SCF Done:  E(RM062X) =  -232.488473076     A.U. after    9 cycles
 SCF Done:  E(RM062X) =  -232.488477337     A.U. after    8 cycles
 Optimization completed.
    -- Stationary point found.
 Normal termination of Gaussian 16 at Thu Dec 26 15:50:13 2019.

 ----------------------------------------------------------------------
 #P Geom=AllCheck Guess=TCheck SCRF=Check GenChk RM062X/6-311++G(d,p) F
 req
 ----------------------------------------------------------------------

 Structure from the checkpoint file:  "benzene_p.chk"
 -------------------
 Title Card Required
 -------------------
 Charge =  1 Multiplicity = 1

                         Standard orientation:
 ---------------------------------------------------------------------
 Center     Atomic      Atomic             Coordinates (Angstroms)
 Number     Number       Type             X           Y           Z
 ---------------------------------------------------------------------
      1          6           0       -1.250292    0.625844   -0.000041
      2          6           0       -1.238932   -0.739098    0.000001
      3          6           0        0.000852   -1.407650   -0.000013
      4          1           0       -2.158983   -1.309044    0.000031
      5          6           0        1.249540    0.627329   -0.000040
      6          6           0        1.239798   -0.737594    0.000001
      7          1           0        0.001528   -2.493974    0.000092
      8          1           0        2.184524    1.178242   -0.000069
      9          1           0        2.160543   -1.306419    0.000030
     10          1           0       -2.185886    1.175689   -0.000069
     11          6           0       -0.000832    1.390765    0.000012
     12          1           0       -0.001268    2.098720    0.850690
     13          1           0       -0.001267    2.099213   -0.850219
 ---------------------------------------------------------------------

 SCF Done:  E(RM062X) =  -232.488477337     A.U. after    1 cycles

 The electronic state is 1-A.
 Alpha  occ. eigenvalues --  -10.79758 -10.78844 -10.78843 -10.76409 -10.75471
 Alpha  occ. eigenvalues --  -10.75469  -1.18470  -1.07217  -1.07073  -0.92434
 Alpha  occ. eigenvalues --   -0.89953  -0.81231  -0.75297  -0.73550  -0.72076
 Alpha  occ. eigenvalues --   -0.70915  -0.68964  -0.62246  -0.61242  -0.59566
 Alpha  occ. eigenvalues --   -0.53134
 Alpha virt. eigenvalues --   -0.28599  -0.18045  -0.13791  -0.11026  -0.10764
 Alpha virt. eigenvalues --   -0.10225  -0.08716  -0.08507  -0.08437  -0.06629
 Alpha virt. eigenvalues --   -0.05620  -0.04642  -0.04353  -0.03599  -0.01826

 Mulliken charges:
               1
     1  C    0.639188
     2  C   -0.587478
     3  C    0.300815
     4  H    0.272059
     5  C    0.639209
     6  C   -0.587445
     7  H    0.295258
     8  H    0.314533
     9  H    0.272055
    10  H    0.314535
    11  C   -1.443173
    12  H    0.285240
    13  H    0.285204
 Sum of Mulliken charges =   1.00000

 Dipole moment (field-independent basis, Debye):
    X=             -0.0005    Y=              0.8813    Z=              0.0004  Tot=              0.8813
 Quadrupole moment (field-independent basis, Debye-Ang):
   XX=            -22.2777   YY=            -19.0907   ZZ=            -35.1948
   XY=             -0.0020   XZ=             -0.0000   YZ=              0.0002

  Exact polarizability:  71.713  -0.003  75.341  -0.000   0.000  35.668
 Approx polarizability:  90.853  -0.007 102.664  -0.000   0.001  47.158

                      1                      2                      3
                      A                      A                      A
 Frequencies --    180.2695               322.4156               391.1152
 Red. masses --      1.2905                 2.6674                 2.4184
 Frc consts  --      0.0247                 0.1634                 0.2180
 IR Inten    --     15.4663                 0.0000                 0.4720

                      4                      5                      6
                      A                      A                      A
 Frequencies --    583.9229               591.4810               651.6686
 Red. masses --      6.1839                 5.8340                 1.3807
 Frc consts  --      1.2423                 1.2025                 0.3455
 IR Inten    --      7.3551                 0.0052                67.1309

                      7                      8                      9
                      A                      A                      A
 Frequencies --    814.9250               848.0207               912.9888
 Red. masses --      1.1591                 1.7423                 4.0477
 Frc consts  --      0.4535                 0.7382                 1.9879
 IR Inten    --      0.0000                21.4937                18.4053

                     10                     11                     12
                      A                      A                      A
 Frequencies --    995.2984               995.9887              1018.3524
 Red. masses --      6.1114                 1.4799                 1.2184
 Frc consts  --      3.5669                 0.8649                 0.7444
 IR Inten    --      0.5322                24.9563                 0.0000

                     13                     14                     15
                      A                      A                      A
 Frequencies --   1025.5175              1057.6656              1076.5783
 Red. masses --      2.3909                 1.3837                 1.4469
 Frc consts  --      1.4815                 0.9120                 0.9881
 IR Inten    --      0.2512                 0.1982                 2.6629

                     16                     17                     18
                      A                      A                      A
 Frequencies --   1154.3538              1159.0680              1206.4508
 Red. masses --      1.1978                 1.2417                 1.1333
 Frc consts  --      0.9404                 0.9829                 0.9719
 IR Inten    --      0.4633                 0.0000                24.2051

                     19                     20                     21
                      A                      A                      A
 Frequencies --   1213.5191              1272.0788              1361.8755
 Red. masses --      1.1285                 1.0624                 1.3637
 Frc consts  --      0.9791                 1.0129                 1.4902
 IR Inten    --     26.8162               121.1366                15.3735

                     22                     23                     24
                      A                      A                      A
 Frequencies --   1441.1265              1480.7499              1492.2674
 Red. masses --      2.4647                 1.7139                 5.3040
 Frc consts  --      3.0159                 2.2141                 6.9590
 IR Inten    --      0.1321                32.4195               239.8477

                     25                     26                     27
                      A                      A                      A
 Frequencies --   1597.3908              1667.4292              2981.6895
 Red. masses --      3.3784                 5.1778                 1.0666
 Frc consts  --      5.0791                 8.4818                 5.5870
 IR Inten    --      0.5474                99.2762                85.9284

                     28                     29                     30
                      A                      A                      A
 Frequencies --   2985.6544              3203.7309              3213.3470
 Red. masses --      1.0860                 1.0924                 1.0918
 Frc consts  --      5.7035                 6.6060                 6.6424
 IR Inten    --     33.6820                 0.5114                 5.1046

                     31                     32                     33
                      A                      A                      A
 Frequencies --   3214.3286              3240.3726              3242.0119
 Red. masses --      1.0940                 1.0966                 1.0991
 Frc consts  --      6.6598                 6.7843                 6.8061
 IR Inten    --      7.4808                11.6575                 4.3748

 - Thermochemistry -
 -------------------
 Temperature     0.001 Kelvin.  Pressure   1.00000 Atm.
 Atom     1 has atomic number  6 and mass  12.00000

 Molecular mass:    79.05478 amu.
 Principal axes and moments of inertia in atomic units:
                           1         2         3
     Eigenvalues --   329.66270 338.69631 657.94675
           X            1.00000  -0.00060  -0.00000
           Y            0.00060   1.00000   0.00000
           Z            0.00000  -0.00000   1.00000
 This molecule is an asymmetric top.
 Rotational symmetry number  1.
 Rotational temperatures (Kelvin)      0.26273     0.25573     0.13164
 Rotational constants (GHZ):           5.47451     5.32849     2.74299
 Zero-point vibrational energy     290654.6 (Joules/Mol)
                                   69.46811 (Kcal/Mol)
 Vibrational temperatures:    259.37   463.88   562.73   840.13   851.01
          (Kelvin)            937.61  1172.50  1220.11  1313.59  1432.01
                             1433.01  1465.18  1475.49  1521.74  1548.96
                             1660.86  1667.64  1735.81  1745.98  1830.24
                             1959.44  2073.46  2130.47  2147.04  2298.29
                             2399.06  4289.99  4295.69  4609.45  4623.29
                             4624.70  4662.17  4664.53

 Zero-point correction=                           0.110704 (Hartree/Particle)
 Thermal correction to Energy=                    0.110704
 Thermal correction to Enthalpy=                  0.110704
 Thermal correction to Gibbs Free Energy=         0.110705
 Sum of electronic and zero-point Energies=           -232.377773
 Sum of electronic and thermal Energies=              -232.377773
 Sum of electronic and thermal Enthalpies=            -232.377773
 Sum of electronic and thermal Free Energies=         -232.377773

                     E (Thermal)             CV                S
                      KCal/Mol        Cal/Mol-Kelvin    Cal/Mol-Kelvin
 Total                   69.468              5.962            -35.381
 Electronic               0.000              0.000              0.000
 Translational            0.000              2.981            -23.606
 Rotational               0.000              2.981            -11.775
 Vibrational             69.468              0.000              0.000

 Optimization completed.
    -- Stationary point found.
 Normal termination of Gaussian 16 at Thu Dec 26 15:50:53 2019.
