 Gaussian 16, Revision A.03,
 Gaussian 16:  ES64L-G16RevA.03 25-Dec-2016

 -------------------------------------------------------------------
 #p opt freq m062x/6-311++g(d,p) geom=connectivity temperature=0.001
 -------------------------------------------------------------------

 -------------------
 Title Card Required
 -------------------
 Symbolic Z-matrix:
 Charge =  0 Multiplicity = 1

 SCF Done:  E(RM062X) =  -232.197411161     A.U. after   11 cycles
 SCF Done:  E(RM062X) =  -232.198405206     A.U. after   11 cycles
 SCF Done:  E(RM062X) =  -232.198418496     A.U. after    9 cycles
 Optimization completed.
    -- Stationary point found.
 Normal termination of Gaussian 16 at Thu Dec 26 15:49:54 2019.

 ----------------------------------------------------------------------
 #P Geom=AllCheck Guess=TCheck SCRF=Check GenChk RM062X/6-311++G(d,p) F
 req
 ----------------------------------------------------------------------

 Structure from the checkpoint file:  "benzene.chk"
 -------------------
 Title Card Required
 -------------------
 Charge =  0 Multiplicity = 1

                         Standard orientation:
 ---------------------------------------------------------------------
 Center     Atomic      Atomic             Coordinates (Angstroms)
 Number     Number       Type             X           Y           Z
 ---------------------------------------------------------------------
      1          6           0       -1.342730    0.366381   -0.000001
      2          6           0       -0.353924    1.345864    0.000009
      3          6           0       -0.988574   -0.979475   -0.000006
      4          6           0        0.988608    0.979582   -0.000005
      5          1           0       -0.629604    2.393919   -0.000001
      6          6           0        0.354019   -1.345941    0.000004
      7          1           0       -1.758247   -1.742380   -0.000004
      8          6           0        1.342625   -0.366417    0.000001
      9          1           0        1.758293    1.742374   -0.000011
     10          1           0        0.629497   -2.393977    0.000012
     11          1           0        2.388080   -0.651663   -0.000003
     12          1           0       -2.388158    0.651767   -0.000002
 ---------------------------------------------------------------------

 SCF Done:  E(RM062X) =  -232.198418496     A.U. after    1 cycles

 The electronic state is 1-A.
 Alpha  occ. eigenvalues --  -10.54552 -10.54517 -10.54516 -10.54437 -10.54435
 Alpha  occ. eigenvalues --  -10.54397  -0.96255  -0.84523  -0.84521  -0.68809
 Alpha  occ. eigenvalues --   -0.68805  -0.60348  -0.53511  -0.51577  -0.49079
 Alpha  occ. eigenvalues --   -0.49078  -0.44080  -0.40487  -0.40484  -0.30957
 Alpha  occ. eigenvalues --   -0.30956
 Alpha virt. eigenvalues --   -0.00018   0.01313   0.01313   0.01791   0.01794
 Alpha virt. eigenvalues --    0.03375   0.03375   0.06151   0.07174   0.09109
 Alpha virt. eigenvalues --    0.09741   0.09741   0.10440   0.12898   0.12898

 Mulliken charges:
               1
     1  C   -0.196013
     2  C   -0.194715
     3  C   -0.194824
     4  C   -0.195960
     5  H    0.195372
     6  C   -0.195853
     7  H    0.195370
     8  C   -0.194937
     9  H    0.195381
    10  H    0.195383
    11  H    0.195387
    12  H    0.195409
 Sum of Mulliken charges =  -0.00000

 Dipole moment (field-independent basis, Debye):
    X=              0.0000    Y=              0.0000    Z=             -0.0000  Tot=              0.0000
 Quadrupole moment (field-independent basis, Debye-Ang):
   XX=            -31.7427   YY=            -31.7423   ZZ=            -40.5107
   XY=             -0.0002   XZ=             -0.0000   YZ=             -0.0000

  Exact polarizability:  76.488   0.000  76.476   0.000   0.000  40.250
 Approx polarizability:  99.776  -0.001  99.771   0.000   0.000  50.945

                      1                      2                      3
                      A                      A                      A
 Frequencies --    409.3093               409.6537               618.2509
 Red. masses --      2.8546                 2.8645                 6.0474
 Frc consts  --      0.2818                 0.2832                 1.3619
 IR Inten    --      0.0018                 0.0000                 0.0000

                      4                      5                      6
                      A                      A                      A
 Frequencies --    618.7052               692.1409               724.8192
 Red. masses --      6.0600                 1.0849                 3.4013
 Frc consts  --      1.3668                 0.3062                 1.0528
 IR Inten    --      0.0000               128.5098                 0.0000

                      7                      8                      9
                      A                      A                      A
 Frequencies --    876.5213               879.2371              1002.4289
 Red. masses --      1.2478                 1.2478                 1.3787
 Frc consts  --      0.5648                 0.5683                 0.8163
 IR Inten    --      0.0000                 0.0000                 0.0054

                     10                     11                     12
                      A                      A                      A
 Frequencies --   1004.0558              1014.9007              1028.8103
 Red. masses --      1.3765                 6.5276                 5.9991
 Frc consts  --      0.8176                 3.9614                 3.7412
 IR Inten    --      0.0000                 0.0000                 0.0000

                     13                     14                     15
                      A                      A                      A
 Frequencies --   1032.9510              1071.7756              1072.2291
 Red. masses --      1.2795                 1.6355                 1.6442
 Frc consts  --      0.8043                 1.1069                 1.1138
 IR Inten    --      0.0000                 6.3566                 6.3436

                     16                     17                     18
                      A                      A                      A
 Frequencies --   1168.4612              1200.1364              1201.8883
 Red. masses --      1.1320                 1.1204                 1.1218
 Frc consts  --      0.9106                 0.9508                 0.9548
 IR Inten    --      0.0001                 0.0000                 0.0000

                     19                     20                     21
                      A                      A                      A
 Frequencies --   1330.1870              1377.7547              1521.0793
 Red. masses --      5.2052                 1.2478                 2.1117
 Frc consts  --      5.4264                 1.3955                 2.8786
 IR Inten    --      0.0000                 0.0000                 7.7795

                     22                     23                     24
                      A                      A                      A
 Frequencies --   1521.8342              1668.0912              1668.9293
 Red. masses --      2.0975                 5.6824                 5.7271
 Frc consts  --      2.8621                 9.3158                 9.3985
 IR Inten    --      7.8194                 0.0000                 0.0000

                     25                     26                     27
                      A                      A                      A
 Frequencies --   3195.5460              3205.7021              3205.8762
 Red. masses --      1.0842                 1.0885                 1.0885
 Frc consts  --      6.5228                 6.5907                 6.5915
 IR Inten    --      0.0023                 0.0078                 0.0060

                     28                     29                     30
                      A                      A                      A
 Frequencies --   3220.5472              3220.6632              3229.9708
 Red. masses --      1.0960                 1.0959                 1.1003
 Frc consts  --      6.6975                 6.6977                 6.7630
 IR Inten    --     21.4995                21.6376                 0.0081

 - Thermochemistry -
 -------------------
 Temperature     0.001 Kelvin.  Pressure   1.00000 Atm.
 Atom     1 has atomic number  6 and mass  12.00000

 Molecular mass:    78.04695 amu.
 Principal axes and moments of inertia in atomic units:
                           1         2         3
     Eigenvalues --   315.15111 315.16487 630.31598
           X            0.99906   0.04342  -0.00000
           Y           -0.04342   0.99906  -0.00000
           Z            0.00000   0.00000   1.00000
 This molecule is an asymmetric top.
 Rotational symmetry number  1.
 Rotational temperatures (Kelvin)      0.27483     0.27482     0.13741
 Rotational constants (GHZ):           5.72659     5.72634     2.86323
 Zero-point vibrational energy     265525.9 (Joules/Mol)
                                   63.46220 (Kcal/Mol)
 Vibrational temperatures:    588.90   589.40   889.53   890.18   995.84
          (Kelvin)           1042.85  1261.12  1265.03  1442.27  1444.61
                             1460.22  1480.23  1486.19  1542.05  1542.70
                             1681.16  1726.73  1729.25  1913.84  1982.28
                             2188.49  2189.58  2400.01  2401.22  4597.68
                             4612.29  4612.54  4633.65  4633.82  4647.21

 Zero-point correction=                           0.101133 (Hartree/Particle)
 Thermal correction to Energy=                    0.101133
 Thermal correction to Enthalpy=                  0.101133
 Thermal correction to Gibbs Free Energy=         0.101134
 Sum of electronic and zero-point Energies=           -232.097285
 Sum of electronic and thermal Energies=              -232.097285
 Sum of electronic and thermal Enthalpies=            -232.097285
 Sum of electronic and thermal Free Energies=         -232.097285

                     E (Thermal)             CV                S
                      KCal/Mol        Cal/Mol-Kelvin    Cal/Mol-Kelvin
 Total                   63.462              5.962            -35.578
 Electronic               0.000              0.000              0.000
 Translational            0.000              2.981            -23.644
 Rotational               0.000              2.981            -11.934
 Vibrational             63.462              0.000              0.000

 Optimization completed.
    -- Stationary point found.
 Normal termination of Gaussian 16 at Thu Dec 26 15:50:28 2019.
