 Gaussian 16, Revision A.03,
 Gaussian 16:  ES64L-G16RevA.03 25-Dec-2016

 -------------------------------------------------------------------
 #P opt freq m062x/6-311++g(d,p) geom=connectivity temperature=0.001
 -------------------------------------------------------------------

 -------------------
 Title Card Required
 -------------------
 Symbolic Z-matrix:
 Charge =  1 Multiplicity = 1

 SCF Done:  E(RM062X) =  -115.993875357     A.U. after   10 cycles
 SCF Done:  E(RM062X) =  -115.999815999     A.U. after   10 cycles
 SCF Done:  E(RM062X) =  -116.000580379     A.U. after    9 cycles
 SCF Done:  E(RM062X) =  -116.000718417     A.U. after    8 cycles
 SCF Done:  E(RM062X) =  -116.000787212     A.U. after    8 cycles
 SCF Done:  E(RM062X) =  -116.000874781     A.U. after    9 cycles
 SCF Done:  E(RM062X) =  -116.000945290     A.U. after    9 cycles
 SCF Done:  E(RM062X) =  -116.000965310     A.U. after    8 cycles
 Optimization completed.
    -- Stationary point found.
 Normal termination of Gaussian 16 at Sun Oct 13 19:56:37 2019.

 ----------------------------------------------------------------------
 #P Geom=AllCheck Guess=TCheck SCRF=Check GenChk RM062X/6-311++G(d,p) F
 req
 ----------------------------------------------------------------------

 Structure from the checkpoint file:  "methanol_p.chk"
 -------------------
 Title Card Required
 -------------------
 Charge =  1 Multiplicity = 1

                         Standard orientation:
 ---------------------------------------------------------------------
 Center     Atomic      Atomic             Coordinates (Angstroms)
 Number     Number       Type             X           Y           Z
 ---------------------------------------------------------------------
      1          6           0       -0.789050    0.000030    0.017768
      2          1           0       -1.100647    0.897164   -0.507849
      3          1           0       -1.100430   -0.897964   -0.506506
      4          1           0       -1.060840    0.000507    1.069355
      5          8           0        0.710573    0.000020   -0.081131
      6          1           0        1.155861   -0.803479    0.243547
      7          1           0        1.155771    0.803435    0.243892
 ---------------------------------------------------------------------

 SCF Done:  E(RM062X) =  -116.000965310     A.U. after    1 cycles

 The electronic state is 1-A.
 Alpha  occ. eigenvalues --  -20.00691 -10.84549  -1.52294  -1.07800  -0.98353
 Alpha  occ. eigenvalues --   -0.86086  -0.81169  -0.72413  -0.69392
 Alpha virt. eigenvalues --   -0.21602  -0.14775  -0.14229  -0.11269  -0.10142
 Alpha virt. eigenvalues --   -0.08692  -0.07508  -0.05872  -0.04268  -0.02912
 Alpha virt. eigenvalues --   -0.01204  -0.01040   0.00915   0.03195   0.03560

 Mulliken charges:
               1
     1  C   -0.330333
     2  H    0.242539
     3  H    0.242503
     4  H    0.236326
     5  O   -0.187464
     6  H    0.398213
     7  H    0.398216
 Sum of Mulliken charges =   1.00000

 Dipole moment (field-independent basis, Debye):
    X=              1.5126    Y=             -0.0003    Z=              1.1996  Tot=              1.9305
 Quadrupole moment (field-independent basis, Debye-Ang):
   XX=             -5.2486   YY=             -8.1376   ZZ=            -11.6552
   XY=             -0.0003   XZ=              1.6816   YZ=              0.0003

  Exact polarizability:  17.128  -0.000  16.007   0.405   0.000  14.540
 Approx polarizability:  17.327  -0.000  17.616   0.433   0.000  15.638

                      1                      2                      3
                      A                      A                      A
 Frequencies --    236.9780               643.9519               858.7791
 Red. masses --      1.0214                 1.1796                 6.2700
 Frc consts  --      0.0338                 0.2882                 2.7245
 IR Inten    --     38.2718               319.5297                56.6621

                      4                      5                      6
                      A                      A                      A
 Frequencies --    935.7263              1179.5288              1291.7411
 Red. masses --      1.0317                 1.2352                 1.3295
 Frc consts  --      0.5322                 1.0126                 1.3070
 IR Inten    --     10.0664                 4.9399                 2.2124

                      7                      8                      9
                      A                      A                      A
 Frequencies --   1476.0822              1489.9398              1494.7871
 Red. masses --      1.1109                 1.0539                 1.0373
 Frc consts  --      1.4261                 1.3784                 1.3656
 IR Inten    --      5.5281                22.0665                21.4970

                     10                     11                     12
                      A                      A                      A
 Frequencies --   1683.8649              3115.8123              3242.0547
 Red. masses --      1.0866                 1.0251                 1.1158
 Frc consts  --      1.8153                 5.8635                 6.9099
 IR Inten    --    125.0593                 0.4227                 4.3764

                     13                     14                     15
                      A                      A                      A
 Frequencies --   3243.3023              3701.6873              3782.9968
 Red. masses --      1.1143                 1.0429                 1.0911
 Frc consts  --      6.9058                 8.4194                 9.1997
 IR Inten    --      6.5025               239.1705               382.8957

 - Thermochemistry -
 -------------------
 Temperature     0.001 Kelvin.  Pressure   1.00000 Atm.
 Atom     1 has atomic number  6 and mass  12.00000

 Molecular mass:    33.03404 amu.
 Principal axes and moments of inertia in atomic units:
                           1         2         3
     Eigenvalues --    17.14886  84.56210  88.30426
           X            0.99965   0.00000   0.02638
           Y           -0.00000   1.00000   0.00000
           Z           -0.02638  -0.00001   0.99965
 This molecule is an asymmetric top.
 Rotational symmetry number  1.
 Rotational temperatures (Kelvin)      5.05071     1.02426     0.98086
 Rotational constants (GHZ):         105.23975    21.34220    20.43776
 Zero-point vibrational energy     169733.5 (Joules/Mol)
                                   40.56729 (Kcal/Mol)
 Vibrational temperatures:    340.96   926.50  1235.59  1346.30  1697.08
          (Kelvin)           1858.53  2123.75  2143.69  2150.67  2422.71
                             4482.96  4664.59  4666.39  5325.90  5442.89

 Zero-point correction=                           0.064648 (Hartree/Particle)
 Thermal correction to Energy=                    0.064648
 Thermal correction to Enthalpy=                  0.064648
 Thermal correction to Gibbs Free Energy=         0.064648
 Sum of electronic and zero-point Energies=           -115.936317
 Sum of electronic and thermal Energies=              -115.936317
 Sum of electronic and thermal Enthalpies=            -115.936317
 Sum of electronic and thermal Free Energies=         -115.936317

                     E (Thermal)             CV                S
                      KCal/Mol        Cal/Mol-Kelvin    Cal/Mol-Kelvin
 Total                   40.567              5.962            -44.293
 Electronic               0.000              0.000              0.000
 Translational            0.000              2.981            -26.207
 Rotational               0.000              2.981            -18.086
 Vibrational             40.567              0.000              0.000

 Optimization completed.
    -- Stationary point found.
 Normal termination of Gaussian 16 at Sun Oct 13 19:58:18 2019.
