 Gaussian 16, Revision A.03,
 Gaussian 16:  ES64L-G16RevA.03 25-Dec-2016

 -------------------------------------------------------------------
 #p opt freq m062x/6-311++g(d,p) geom=connectivity temperature=0.001
 -------------------------------------------------------------------

 -------------------
 Title Card Required
 -------------------
 Symbolic Z-matrix:
 Charge =  1 Multiplicity = 1

 SCF Done:  E(RM062X) =  -157.473733548     A.U. after   11 cycles
 SCF Done:  E(RM062X) =  -157.493218232     A.U. after   12 cycles
 SCF Done:  E(RM062X) =  -157.495418943     A.U. after   11 cycles
 SCF Done:  E(RM062X) =  -157.495540236     A.U. after    9 cycles
 SCF Done:  E(RM062X) =  -157.495553798     A.U. after    9 cycles
 SCF Done:  E(RM062X) =  -157.495563610     A.U. after    8 cycles
 SCF Done:  E(RM062X) =  -157.495569511     A.U. after    8 cycles
 SCF Done:  E(RM062X) =  -157.495575202     A.U. after    9 cycles
 SCF Done:  E(RM062X) =  -157.495584698     A.U. after    9 cycles
 SCF Done:  E(RM062X) =  -157.495601552     A.U. after   10 cycles
 SCF Done:  E(RM062X) =  -157.495656823     A.U. after    7 cycles
 SCF Done:  E(RM062X) =  -157.495657437     A.U. after    9 cycles
 SCF Done:  E(RM062X) =  -157.495656692     A.U. after    9 cycles
 SCF Done:  E(RM062X) =  -157.495656677     A.U. after    8 cycles
 SCF Done:  E(RM062X) =  -157.495657359     A.U. after    9 cycles
 SCF Done:  E(RM062X) =  -157.495656761     A.U. after    9 cycles
 SCF Done:  E(RM062X) =  -157.495656825     A.U. after    8 cycles
 SCF Done:  E(RM062X) =  -157.495657452     A.U. after    9 cycles
 SCF Done:  E(RM062X) =  -157.495656760     A.U. after    9 cycles
 Optimization completed.
    -- Stationary point found.
 Normal termination of Gaussian 16 at Thu Dec 26 16:35:37 2019.

 ----------------------------------------------------------------------
 #P Geom=AllCheck Guess=TCheck SCRF=Check GenChk RM062X/6-311++G(d,p) F
 req
 ----------------------------------------------------------------------

 Structure from the checkpoint file:  "methylpropene_p.chk"
 -------------------
 Title Card Required
 -------------------
 Charge =  1 Multiplicity = 1

                         Standard orientation:
 ---------------------------------------------------------------------
 Center     Atomic      Atomic             Coordinates (Angstroms)
 Number     Number       Type             X           Y           Z
 ---------------------------------------------------------------------
      1          6           0        1.349609    0.563668    0.015524
      2          1           0        2.124534   -0.158428    0.267877
      3          1           0        1.508432    0.858915   -1.040956
      4          1           0        1.423880    1.486762    0.592198
      5          6           0        0.003005    0.003704    0.016142
      6          6           0       -0.181617   -1.441667   -0.017681
      7          1           0        0.631503   -1.961293   -0.527696
      8          1           0       -0.091769   -1.728215    1.049792
      9          1           0       -1.168239   -1.754919   -0.355590
     10          6           0       -1.164891    0.879980    0.013389
     11          1           0       -1.518035    0.869495   -1.034807
     12          1           0       -1.991378    0.446266    0.583990
     13          1           0       -0.955559    1.907309    0.300944
 ---------------------------------------------------------------------

 SCF Done:  E(RM062X) =  -157.495656760     A.U. after    1 cycles

 The electronic state is 1-A.
 Alpha  occ. eigenvalues --  -10.87176 -10.75348 -10.75279 -10.75242  -1.17185
 Alpha  occ. eigenvalues --   -1.02449  -1.02326  -0.83679  -0.75063  -0.75029
 Alpha  occ. eigenvalues --   -0.74561  -0.66925  -0.66763  -0.65649  -0.64700
 Alpha  occ. eigenvalues --   -0.64604
 Alpha virt. eigenvalues --   -0.27586  -0.15060  -0.11069  -0.10997  -0.10751
 Alpha virt. eigenvalues --   -0.09545  -0.08362  -0.08189  -0.07688  -0.07301
 Alpha virt. eigenvalues --   -0.06576  -0.04183  -0.03289  -0.02671  -0.01875

 Mulliken charges:
               1
     1  C   -0.680032
     2  H    0.228935
     3  H    0.270956
     4  H    0.233500
     5  C    0.782321
     6  C   -0.655639
     7  H    0.238874
     8  H    0.269193
     9  H    0.229560
    10  C   -0.649550
    11  H    0.270296
    12  H    0.245670
    13  H    0.215917
 Sum of Mulliken charges =   1.00000

 Dipole moment (field-independent basis, Debye):
    X=             -0.0276    Y=             -0.0439    Z=             -0.1569  Tot=              0.1652
 Quadrupole moment (field-independent basis, Debye-Ang):
   XX=            -17.4231   YY=            -17.6591   ZZ=            -22.7347
   XY=              0.0706   XZ=             -0.1156   YZ=             -0.6530

  Exact polarizability:  48.899   0.164  48.556  -0.130  -1.199  35.350
 Approx polarizability:  54.224   0.275  53.762  -0.218  -2.084  45.213

                      1                      2                      3
                      A                      A                      A
 Frequencies --     24.4296               136.6573               211.7659
 Red. masses --      1.0577                 1.0598                 1.0336
 Frc consts  --      0.0004                 0.0117                 0.0273
 IR Inten    --      1.8829                 2.4638                 4.1793

                      4                      5                      6
                      A                      A                      A
 Frequencies --    406.0853               413.2464               442.9595
 Red. masses --      1.8415                 2.0763                 1.7701
 Frc consts  --      0.1789                 0.2089                 0.2046
 IR Inten    --      1.7250                 0.4299                 2.6597

                      7                      8                      9
                      A                      A                      A
 Frequencies --    709.6051               750.9626               845.8050
 Red. masses --      1.2537                 1.4329                 2.3271
 Frc consts  --      0.3719                 0.4761                 0.9809
 IR Inten    --     15.2893                 7.3509                 5.0629

                     10                     11                     12
                      A                      A                      A
 Frequencies --    977.2954               993.6823              1019.0360
 Red. masses --      1.6671                 1.3290                 1.5458
 Frc consts  --      0.9381                 0.7732                 0.9457
 IR Inten    --     25.1675                 7.7900                 3.7749

                     13                     14                     15
                      A                      A                      A
 Frequencies --   1104.2238              1303.3442              1312.1857
 Red. masses --      2.0126                 1.5145                 1.3090
 Frc consts  --      1.4459                 1.5158                 1.3279
 IR Inten    --     36.1782                75.8686                26.6678

                     16                     17                     18
                      A                      A                      A
 Frequencies --   1339.2154              1343.9271              1369.8524
 Red. masses --      1.2153                 1.2314                 1.3981
 Frc consts  --      1.2843                 1.3104                 1.5458
 IR Inten    --     70.8657                43.5585               121.6218

                     19                     20                     21
                      A                      A                      A
 Frequencies --   1406.5855              1425.0737              1438.7644
 Red. masses --      1.0585                 1.0955                 1.2620
 Frc consts  --      1.2339                 1.3108                 1.5392
 IR Inten    --      8.6502                 6.9630                24.1972

                     22                     23                     24
                      A                      A                      A
 Frequencies --   1503.9546              1507.4319              1515.3212
 Red. masses --      1.1974                 1.4591                 1.3529
 Frc consts  --      1.5957                 1.9534                 1.8304
 IR Inten    --      7.7646                27.5618                33.8025

                     25                     26                     27
                      A                      A                      A
 Frequencies --   2963.8860              2969.5694              2989.7436
 Red. masses --      1.0579                 1.0592                 1.0601
 Frc consts  --      5.4754                 5.5030                 5.5828
 IR Inten    --    128.4573                65.6744                36.0133

                     28                     29                     30
                      A                      A                      A
 Frequencies --   3094.3108              3107.9793              3111.0635
 Red. masses --      1.0728                 1.0670                 1.0669
 Frc consts  --      6.0522                 6.0723                 6.0840
 IR Inten    --     11.9033                 7.6907                 9.4634

                     31                     32                     33
                      A                      A                      A
 Frequencies --   3186.5397              3187.8293              3195.5351
 Red. masses --      1.1084                 1.1092                 1.1049
 Frc consts  --      6.6312                 6.6410                 6.6476
 IR Inten    --      6.6600                 1.1328                 4.6147

 - Thermochemistry -
 -------------------
 Temperature     0.001 Kelvin.  Pressure   1.00000 Atm.
 Atom     1 has atomic number  6 and mass  12.00000

 Molecular mass:    57.07043 amu.
 Principal axes and moments of inertia in atomic units:
                           1         2         3
     Eigenvalues --   215.06430 217.86549 400.35653
           X            0.99982   0.01871  -0.00099
           Y           -0.01872   0.99981  -0.00537
           Z            0.00089   0.00538   0.99999
 This molecule is an asymmetric top.
 Rotational symmetry number  1.
 Rotational temperatures (Kelvin)      0.40274     0.39756     0.21634
 Rotational constants (GHZ):           8.39164     8.28374     4.50784
 Zero-point vibrational energy     306889.2 (Joules/Mol)
                                   73.34828 (Kcal/Mol)
 Vibrational temperatures:     35.15   196.62   304.68   584.27   594.57
          (Kelvin)            637.32  1020.96  1080.47  1216.92  1406.11
                             1429.69  1466.17  1588.73  1875.22  1887.94
                             1926.83  1933.61  1970.91  2023.76  2050.36
                             2070.06  2163.86  2168.86  2180.21  4264.37
                             4272.55  4301.57  4452.02  4471.69  4476.13
                             4584.72  4586.58  4597.66

 Zero-point correction=                           0.116888 (Hartree/Particle)
 Thermal correction to Energy=                    0.116888
 Thermal correction to Enthalpy=                  0.116888
 Thermal correction to Gibbs Free Energy=         0.116888
 Sum of electronic and zero-point Energies=           -157.378769
 Sum of electronic and thermal Energies=              -157.378769
 Sum of electronic and thermal Enthalpies=            -157.378769
 Sum of electronic and thermal Free Energies=         -157.378769

                     E (Thermal)             CV                S
                      KCal/Mol        Cal/Mol-Kelvin    Cal/Mol-Kelvin
 Total                   73.348              5.962            -37.709
 Electronic               0.000              0.000              0.000
 Translational            0.000              2.981            -24.577
 Rotational               0.000              2.981            -13.131
 Vibrational             73.348              0.000              0.000

 Optimization completed on the basis of negligible forces.
    -- Stationary point found.
 Normal termination of Gaussian 16 at Thu Dec 26 16:36:04 2019.
