 Gaussian 16, Revision A.03,
 Gaussian 16:  ES64L-G16RevA.03 25-Dec-2016

 -------------------------------------------------------------------
 #p opt freq m062x/6-311++g(d,p) geom=connectivity temperature=0.001
 -------------------------------------------------------------------

 -------------------
 Title Card Required
 -------------------
 Symbolic Z-matrix:
 Charge =  0 Multiplicity = 1

 SCF Done:  E(RM062X) =  -157.167058201     A.U. after   11 cycles
 SCF Done:  E(RM062X) =  -157.176047715     A.U. after   11 cycles
 SCF Done:  E(RM062X) =  -157.177386066     A.U. after   11 cycles
 SCF Done:  E(RM062X) =  -157.177448462     A.U. after   10 cycles
 SCF Done:  E(RM062X) =  -157.177452784     A.U. after    8 cycles
 SCF Done:  E(RM062X) =  -157.177456991     A.U. after    8 cycles
 SCF Done:  E(RM062X) =  -157.177511518     A.U. after   10 cycles
 SCF Done:  E(RM062X) =  -157.176473684     A.U. after   11 cycles
 SCF Done:  E(RM062X) =  -157.178009604     A.U. after   11 cycles
 SCF Done:  E(RM062X) =  -157.178326982     A.U. after   10 cycles
 SCF Done:  E(RM062X) =  -157.178959551     A.U. after   10 cycles
 SCF Done:  E(RM062X) =  -157.179959932     A.U. after   10 cycles
 SCF Done:  E(RM062X) =  -157.180611370     A.U. after   11 cycles
 SCF Done:  E(RM062X) =  -157.180758370     A.U. after   10 cycles
 SCF Done:  E(RM062X) =  -157.180768701     A.U. after    8 cycles
 SCF Done:  E(RM062X) =  -157.180770634     A.U. after    8 cycles
 SCF Done:  E(RM062X) =  -157.180770961     A.U. after    7 cycles
 Optimization completed.
    -- Stationary point found.
 Normal termination of Gaussian 16 at Thu Dec 26 16:34:41 2019.

 ----------------------------------------------------------------------
 #P Geom=AllCheck Guess=TCheck SCRF=Check GenChk RM062X/6-311++G(d,p) F
 req
 ----------------------------------------------------------------------

 Structure from the checkpoint file:  "methylpropene.chk"
 -------------------
 Title Card Required
 -------------------
 Charge =  0 Multiplicity = 1

                         Standard orientation:
 ---------------------------------------------------------------------
 Center     Atomic      Atomic             Coordinates (Angstroms)
 Number     Number       Type             X           Y           Z
 ---------------------------------------------------------------------
      1          6           0        1.271316   -0.678391   -0.000002
      2          1           0        1.313278   -1.328753   -0.879178
      3          1           0        2.153400   -0.037678    0.000014
      4          1           0        1.313314   -1.328976    0.878986
      5          6           0       -0.000008    0.125425    0.000024
      6          6           0       -0.000030    1.456286    0.000035
      7          1           0       -0.925859    2.020851   -0.000245
      8          1           0        0.925765    2.020886    0.000047
      9          6           0       -1.271288   -0.678434   -0.000012
     10          1           0       -1.313252   -1.328953   -0.879045
     11          1           0       -1.313202   -1.328922    0.879092
     12          1           0       -2.153387   -0.037769    0.000061
 ---------------------------------------------------------------------

 SCF Done:  E(RM062X) =  -157.180770961     A.U. after    1 cycles

 The electronic state is 1-A.
 Alpha  occ. eigenvalues --  -10.54729 -10.52946 -10.52945 -10.51941  -0.90892
 Alpha  occ. eigenvalues --   -0.78527  -0.77147  -0.59967  -0.52374  -0.51356
 Alpha  occ. eigenvalues --   -0.50190  -0.45078  -0.43467  -0.42645  -0.39677
 Alpha  occ. eigenvalues --   -0.30343
 Alpha virt. eigenvalues --   -0.00104   0.01769   0.02168   0.02214   0.04002
 Alpha virt. eigenvalues --    0.04572   0.05442   0.06031   0.07122   0.07945
 Alpha virt. eigenvalues --    0.09458   0.10035   0.11250   0.12265   0.13437

 Mulliken charges:
               1
     1  C   -0.639706
     2  H    0.154932
     3  H    0.160362
     4  H    0.154926
     5  C    0.830428
     6  C   -0.764744
     7  H    0.136645
     8  H    0.136646
     9  C   -0.639710
    10  H    0.154932
    11  H    0.154930
    12  H    0.160359
 Sum of Mulliken charges =   0.00000

 Dipole moment (field-independent basis, Debye):
    X=              0.0000    Y=             -0.5570    Z=             -0.0003  Tot=              0.5570
 Quadrupole moment (field-independent basis, Debye-Ang):
   XX=            -25.8135   YY=            -26.3874   ZZ=            -28.5880
   XY=              0.0000   XZ=              0.0002   YZ=             -0.0005

  Exact polarizability:  48.437  -0.000  61.498   0.000   0.000  38.522
 Approx polarizability:  51.044  -0.000  72.315   0.000   0.001  46.747

                      1                      2                      3
                      A                      A                      A
 Frequencies --    161.3914               211.0411               383.0539
 Red. masses --      1.0243                 1.0806                 2.1627
 Frc consts  --      0.0157                 0.0284                 0.1870
 IR Inten    --      0.0000                 0.6899                 0.2503

                      4                      5                      6
                      A                      A                      A
 Frequencies --    440.1577               442.0903               704.7429
 Red. masses --      2.1248                 2.0772                 1.0092
 Frc consts  --      0.2425                 0.2392                 0.2953
 IR Inten    --     10.1258                 1.3084                 0.0000

                      7                      8                      9
                      A                      A                      A
 Frequencies --    830.4355               938.5514               965.2379
 Red. masses --      3.3699                 1.3224                 1.3523
 Frc consts  --      1.3693                 0.6863                 0.7423
 IR Inten    --      0.1453                55.0733                 0.0911

                     10                     11                     12
                      A                      A                      A
 Frequencies --    988.1132              1019.5464              1085.1872
 Red. masses --      1.5104                 1.2377                 1.4539
 Frc consts  --      0.8689                 0.7580                 1.0088
 IR Inten    --      0.1135                 0.0000                 3.3286

                     13                     14                     15
                      A                      A                      A
 Frequencies --   1108.5072              1306.3114              1410.4016
 Red. masses --      1.7045                 2.3159                 1.1884
 Frc consts  --      1.2340                 2.3284                 1.3928
 IR Inten    --      0.0230                 2.2701                 1.0342

                     16                     17                     18
                      A                      A                      A
 Frequencies --   1415.8537              1445.7211              1474.6385
 Red. masses --      1.5148                 1.1883                 1.0455
 Frc consts  --      1.7891                 1.4634                 1.3395
 IR Inten    --     15.7098                 0.9954                 0.0000

                     19                     20                     21
                      A                      A                      A
 Frequencies --   1487.4554              1494.4607              1505.2667
 Red. masses --      1.0422                 1.0418                 1.0679
 Frc consts  --      1.3587                 1.3709                 1.4257
 IR Inten    --      5.1073                21.7054                16.9957

                     22                     23                     24
                      A                      A                      A
 Frequencies --   1748.6816              3047.6806              3051.4965
 Red. masses --      5.4431                 1.0370                 1.0375
 Frc consts  --      9.8066                 5.6752                 5.6918
 IR Inten    --     23.1095                15.5980                28.2934

                     25                     26                     27
                      A                      A                      A
 Frequencies --   3103.4838              3105.7589              3147.7698
 Red. masses --      1.1002                 1.0997                 1.1013
 Frc consts  --      6.2433                 6.2498                 6.4291
 IR Inten    --      0.0043                28.6500                19.2114

                     28                     29                     30
                      A                      A                      A
 Frequencies --   3149.1798              3162.9888              3248.4910
 Red. masses --      1.1011                 1.0606                 1.1167
 Frc consts  --      6.4338                 6.2520                 6.9431
 IR Inten    --     13.6015                 4.8189                12.2774

 - Thermochemistry -
 -------------------
 Temperature     0.001 Kelvin.  Pressure   1.00000 Atm.
 Atom     1 has atomic number  6 and mass  12.00000

 Molecular mass:    56.06260 amu.
 Principal axes and moments of inertia in atomic units:
                           1         2         3
     Eigenvalues --   196.84049 214.01866 388.60942
           X            1.00000   0.00001  -0.00000
           Y           -0.00001   1.00000  -0.00001
           Z            0.00000   0.00001   1.00000
 This molecule is an asymmetric top.
 Rotational symmetry number  1.
 Rotational temperatures (Kelvin)      0.44002     0.40470     0.22288
 Rotational constants (GHZ):           9.16855     8.43263     4.64410
 Zero-point vibrational energy     284613.7 (Joules/Mol)
                                   68.02431 (Kcal/Mol)
 Vibrational temperatures:    232.21   303.64   551.13   633.29   636.07
          (Kelvin)           1013.97  1194.81  1350.37  1388.76  1421.67
                             1466.90  1561.34  1594.89  1879.49  2029.25
                             2037.10  2080.07  2121.68  2140.12  2150.20
                             2165.74  2515.96  4384.93  4390.42  4465.22
                             4468.49  4528.94  4530.97  4550.84  4673.85

 Zero-point correction=                           0.108404 (Hartree/Particle)
 Thermal correction to Energy=                    0.108404
 Thermal correction to Enthalpy=                  0.108404
 Thermal correction to Gibbs Free Energy=         0.108404
 Sum of electronic and zero-point Energies=           -157.072367
 Sum of electronic and thermal Energies=              -157.072367
 Sum of electronic and thermal Enthalpies=            -157.072367
 Sum of electronic and thermal Free Energies=         -157.072367

                     E (Thermal)             CV                S
                      KCal/Mol        Cal/Mol-Kelvin    Cal/Mol-Kelvin
 Total                   68.024              5.962            -37.897
 Electronic               0.000              0.000              0.000
 Translational            0.000              2.981            -24.631
 Rotational               0.000              2.981            -13.266
 Vibrational             68.024              0.000              0.000

 Optimization completed.
    -- Stationary point found.
 Normal termination of Gaussian 16 at Thu Dec 26 16:35:05 2019.
