 Gaussian 16, Revision A.03,
 Gaussian 16:  ES64L-G16RevA.03 25-Dec-2016

 -------------------------------------------------------------------
 #P opt freq m062x/6-311++g(d,p) geom=connectivity temperature=0.001
 -------------------------------------------------------------------

 -------------------
 Title Card Required
 -------------------
 Symbolic Z-matrix:
 Charge =  0 Multiplicity = 1

 SCF Done:  E(RM062X) =  -115.702564989     A.U. after   10 cycles
 SCF Done:  E(RM062X) =  -115.704209690     A.U. after    9 cycles
 SCF Done:  E(RM062X) =  -115.704300655     A.U. after    8 cycles
 SCF Done:  E(RM062X) =  -115.704309052     A.U. after    8 cycles
 Optimization completed.
    -- Stationary point found.
 Normal termination of Gaussian 16 at Sun Oct 13 19:46:54 2019.

 ----------------------------------------------------------------------
 #P Geom=AllCheck Guess=TCheck SCRF=Check GenChk RM062X/6-311++G(d,p) F
 req
 ----------------------------------------------------------------------

 Structure from the checkpoint file:  "methanol.chk"
 -------------------
 Title Card Required
 -------------------
 Charge =  0 Multiplicity = 1

                         Standard orientation:
 ---------------------------------------------------------------------
 Center     Atomic      Atomic             Coordinates (Angstroms)
 Number     Number       Type             X           Y           Z
 ---------------------------------------------------------------------
      1          6           0       -0.046459    0.661543   -0.000000
      2          1           0       -1.088872    0.977222   -0.000000
      3          1           0        0.439167    1.071269    0.891798
      4          1           0        0.439167    1.071269   -0.891798
      5          8           0       -0.046459   -0.753255    0.000000
      6          1           0        0.860970   -1.062980    0.000000
 ---------------------------------------------------------------------

 SCF Done:  E(RM062X) =  -115.704309052     A.U. after    1 cycles

 The electronic state is 1-A'.
 Alpha  occ. eigenvalues --  -19.62163 -10.57916  -1.14531  -0.77840  -0.58813
 Alpha  occ. eigenvalues --   -0.51815  -0.50087  -0.40969  -0.35461
 Alpha virt. eigenvalues --   -0.00321   0.01901   0.03391   0.04022   0.07609
 Alpha virt. eigenvalues --    0.09192   0.10615   0.13301   0.19504   0.21371
 Alpha virt. eigenvalues --    0.21589   0.21930   0.23878   0.24300   0.26533

 Mulliken charges:
               1
     1  C   -0.342244
     2  H    0.162113
     3  H    0.134115
     4  H    0.134115
     5  O   -0.349639
     6  H    0.261540
 Sum of Mulliken charges =   0.00000

 Dipole moment (field-independent basis, Debye):
    X=              1.5363    Y=              1.1278    Z=              0.0000  Tot=              1.9058
 Quadrupole moment (field-independent basis, Debye-Ang):
   XX=            -11.8365   YY=            -13.5545   ZZ=            -13.8746
   XY=             -2.2880   XZ=              0.0000   YZ=              0.0000

  Exact polarizability:  18.047  -0.791  19.359   0.000  -0.000  17.151
 Approx polarizability:  19.506  -0.732  19.476   0.000   0.000  17.909

                      1                      2                      3
                     A"                     A'                     A'
 Frequencies --    294.8796              1067.2840              1110.8758
 Red. masses --      1.0717                 1.1565                 4.9252
 Frc consts  --      0.0549                 0.7762                 3.5810
 IR Inten    --    136.9772                75.3607                55.1648

                      4                      5                      6
                     A"                     A'                     A'
 Frequencies --   1181.2520              1362.1743              1490.7794
 Red. masses --      1.2720                 1.3033                 1.1426
 Frc consts  --      1.0458                 1.4248                 1.4961
 IR Inten    --      0.4727                23.9531                 4.4640

                      7                      8                      9
                     A"                     A'                     A'
 Frequencies --   1508.2964              1518.6787              3034.3988
 Red. masses --      1.0444                 1.0435                 1.0357
 Frc consts  --      1.3998                 1.4180                 5.6189
 IR Inten    --      4.0943                 5.2013                54.3652

                     10                     11                     12
                     A"                     A'                     A'
 Frequencies --   3089.4408              3154.1304              3918.4208
 Red. masses --      1.1058                 1.0987                 1.0669
 Frc consts  --      6.2185                 6.4401                 9.6519
 IR Inten    --     50.1999                21.7644                43.1367

 - Thermochemistry -
 -------------------
 Temperature     0.001 Kelvin.  Pressure   1.00000 Atm.
 Atom     1 has atomic number  6 and mass  12.00000

 Molecular mass:    32.02621 amu.
 Principal axes and moments of inertia in atomic units:
                           1         2         3
     Eigenvalues --    14.04094  72.36525  74.95698
           X           -0.05498   0.99849   0.00000
           Y            0.99849   0.05498   0.00000
           Z            0.00000   0.00000   1.00000
 This molecule is an asymmetric top.
 Rotational symmetry number  1.
 Rotational temperatures (Kelvin)      6.16867     1.19690     1.15552
 Rotational constants (GHZ):         128.53420    24.93933    24.07703
 Zero-point vibrational energy     135959.2 (Joules/Mol)
                                   32.49504 (Kcal/Mol)
 Vibrational temperatures:    424.27  1535.58  1598.30  1699.56  1959.87
          (Kelvin)           2144.90  2170.10  2185.04  4365.82  4445.02
                             4538.09  5637.73

 Zero-point correction=                           0.051784 (Hartree/Particle)
 Thermal correction to Energy=                    0.051784
 Thermal correction to Enthalpy=                  0.051784
 Thermal correction to Gibbs Free Energy=         0.051784
 Sum of electronic and zero-point Energies=           -115.652525
 Sum of electronic and thermal Energies=              -115.652525
 Sum of electronic and thermal Enthalpies=            -115.652525
 Sum of electronic and thermal Free Energies=         -115.652525

                     E (Thermal)             CV                S
                      KCal/Mol        Cal/Mol-Kelvin    Cal/Mol-Kelvin
 Total                   32.495              5.962            -44.902
 Electronic               0.000              0.000              0.000
 Translational            0.000              2.981            -26.300
 Rotational               0.000              2.981            -18.603
 Vibrational             32.495              0.000              0.000

 Optimization completed.
    -- Stationary point found.
 Normal termination of Gaussian 16 at Sun Oct 13 19:48:35 2019.
