 Gaussian 16, Revision A.03,
 Gaussian 16:  ES64L-G16RevA.03 25-Dec-2016

 -------------------------------------------------------------------
 #P opt freq m062x/6-311++g(d,p) geom=connectivity temperature=0.001
 -------------------------------------------------------------------

 ---
 MOP
 ---
 Symbolic Z-matrix:
 Charge =  0 Multiplicity = 1

 SCF Done:  E(RM062X) =  -232.372436524     A.U. after   12 cycles
 SCF Done:  E(RM062X) =  -232.380622170     A.U. after   11 cycles
 SCF Done:  E(RM062X) =  -232.382154140     A.U. after   11 cycles
 SCF Done:  E(RM062X) =  -232.383036943     A.U. after   12 cycles
 SCF Done:  E(RM062X) =  -232.383570766     A.U. after   12 cycles
 SCF Done:  E(RM062X) =  -232.383450019     A.U. after   14 cycles
 SCF Done:  E(RM062X) =  -232.384347558     A.U. after   12 cycles
 SCF Done:  E(RM062X) =  -232.384449126     A.U. after   11 cycles
 SCF Done:  E(RM062X) =  -232.384515521     A.U. after   11 cycles
 SCF Done:  E(RM062X) =  -232.384520700     A.U. after    8 cycles
 SCF Done:  E(RM062X) =  -232.384521560     A.U. after    8 cycles
 Optimization completed.
    -- Stationary point found.
 Normal termination of Gaussian 16 at Mon Oct 14 01:55:43 2019.

 ----------------------------------------------------------------------
 #P Geom=AllCheck Guess=TCheck SCRF=Check GenChk RM062X/6-311++G(d,p) F
 req
 ----------------------------------------------------------------------

 Structure from the checkpoint file:  "mop.chk"
 ---
 MOP
 ---
 Charge =  0 Multiplicity = 1

                         Standard orientation:
 ---------------------------------------------------------------------
 Center     Atomic      Atomic             Coordinates (Angstroms)
 Number     Number       Type             X           Y           Z
 ---------------------------------------------------------------------
      1          6           0       -0.551580    0.087689   -0.048986
      2          6           0       -0.586115   -1.413432   -0.040477
      3          6           0       -1.614958    0.864061    0.140949
      4          8           0        0.647199    0.682513   -0.344251
      5          6           0        1.810071    0.083288    0.194844
      6          1           0       -1.612476   -1.757264    0.074766
      7          1           0       -0.184950   -1.809658   -0.977620
      8          1           0        0.006500   -1.828768    0.778475
      9          1           0       -2.591847    0.428437    0.295739
     10          1           0       -1.515231    1.940958    0.116679
     11          1           0        1.993311   -0.908008   -0.229713
     12          1           0        2.638391    0.738293   -0.067572
     13          1           0        1.744201    0.006271    1.285266
 ---------------------------------------------------------------------

 SCF Done:  E(RM062X) =  -232.384521560     A.U. after    1 cycles

 The electronic state is 1-A.
 Alpha  occ. eigenvalues --  -19.64114 -10.59664 -10.58773 -10.54057 -10.51396
 Alpha  occ. eigenvalues --   -1.18204  -0.88818  -0.80882  -0.76706  -0.63422
 Alpha  occ. eigenvalues --   -0.56154  -0.55187  -0.54675  -0.48742  -0.47300
 Alpha  occ. eigenvalues --   -0.46711  -0.44235  -0.41121  -0.37360  -0.28541
 Alpha virt. eigenvalues --   -0.00353   0.01276   0.02127   0.02278   0.03866
 Alpha virt. eigenvalues --    0.04292   0.04738   0.05515   0.06380   0.07616
 Alpha virt. eigenvalues --    0.08769   0.09792   0.11132   0.11841   0.12585

 Mulliken charges:
               1
     1  C    0.260167
     2  C   -0.607044
     3  C   -0.463506
     4  O   -0.128680
     5  C   -0.342279
     6  H    0.165078
     7  H    0.188705
     8  H    0.172571
     9  H    0.135425
    10  H    0.137375
    11  H    0.145118
    12  H    0.172246
    13  H    0.164823
 Sum of Mulliken charges =   0.00000

 Dipole moment (field-independent basis, Debye):
    X=              0.7887    Y=             -1.6620    Z=              0.6784  Tot=              1.9607
 Quadrupole moment (field-independent basis, Debye-Ang):
   XX=            -28.5126   YY=            -31.8255   ZZ=            -34.0800
   XY=              0.0397   XZ=              0.4848   YZ=              0.7064

  Exact polarizability:  65.180  -7.048  54.333  -1.366   1.178  41.880
 Approx polarizability:  70.592  -8.894  60.659  -2.646   0.972  50.783

                      1                      2                      3
                      A                      A                      A
 Frequencies --     92.8197               210.9848               255.1209
 Red. masses --      2.8888                 1.0658                 1.1774
 Frc consts  --      0.0147                 0.0280                 0.0452
 IR Inten    --      8.5421                 1.3367                 1.3639

                      4                      5                      6
                      A                      A                      A
 Frequencies --    329.5662               427.4513               483.7633
 Red. masses --      2.0962                 2.1718                 2.7207
 Frc consts  --      0.1341                 0.2338                 0.3751
 IR Inten    --      1.3898                 1.0485                 3.6834

                      7                      8                      9
                      A                      A                      A
 Frequencies --    545.7907               752.2136               830.9509
 Red. masses --      2.3253                 1.1727                 3.5712
 Frc consts  --      0.4081                 0.3910                 1.4528
 IR Inten    --      7.9812                 3.1962                11.3144

                     10                     11                     12
                      A                      A                      A
 Frequencies --    883.6191               942.1710              1022.7102
 Red. masses --      1.3530                 1.6946                 1.4409
 Frc consts  --      0.6224                 0.8863                 0.8879
 IR Inten    --     64.4701                 7.9474                 3.9244

                     13                     14                     15
                      A                      A                      A
 Frequencies --   1067.9520              1158.8205              1181.0653
 Red. masses --      1.5376                 5.0581                 1.2922
 Frc consts  --      1.0332                 4.0020                 1.0620
 IR Inten    --      1.5406                99.5551                 6.2861

                     16                     17                     18
                      A                      A                      A
 Frequencies --   1212.5692              1322.5164              1405.6170
 Red. masses --      1.4366                 2.8149                 1.2650
 Frc consts  --      1.2445                 2.9008                 1.4726
 IR Inten    --      0.7692               169.6319                42.0023

                     19                     20                     21
                      A                      A                      A
 Frequencies --   1430.9245              1484.0975              1484.8644
 Red. masses --      1.3091                 1.0669                 1.0930
 Frc consts  --      1.5793                 1.3845                 1.4199
 IR Inten    --     12.8648                10.0753                 9.6213

                     22                     23                     24
                      A                      A                      A
 Frequencies --   1496.0705              1510.6641              1518.5733
 Red. masses --      1.1002                 1.0511                 1.0486
 Frc consts  --      1.4508                 1.4133                 1.4247
 IR Inten    --      9.0870                12.8744                 8.4288

                     25                     26                     27
                      A                      A                      A
 Frequencies --   1747.9937              3039.1244              3061.8817
 Red. masses --      5.9776                 1.0359                 1.0388
 Frc consts  --     10.7611                 5.6370                 5.7380
 IR Inten    --    135.4374                44.8642                15.4296

                     28                     29                     30
                      A                      A                      A
 Frequencies --   3104.5647              3120.8691              3167.1804
 Red. masses --      1.1046                 1.1005                 1.0995
 Frc consts  --      6.2725                 6.3152                 6.4984
 IR Inten    --     34.9323                 8.0807                24.5095

                     31                     32                     33
                      A                      A                      A
 Frequencies --   3169.4959              3193.6705              3290.7807
 Red. masses --      1.0999                 1.0604                 1.1185
 Frc consts  --      6.5101                 6.3725                 7.1366
 IR Inten    --      3.2683                 0.0908                 3.2027

 - Thermochemistry -
 -------------------
 Temperature     0.001 Kelvin.  Pressure   1.00000 Atm.
 Atom     1 has atomic number  6 and mass  12.00000

 Molecular mass:    72.05751 amu.
 Principal axes and moments of inertia in atomic units:
                           1         2         3
     Eigenvalues --   219.87020 417.56359 594.53918
           X            0.99988  -0.01389   0.00685
           Y            0.01380   0.99981   0.01345
           Z           -0.00704  -0.01335   0.99989
 This molecule is an asymmetric top.
 Rotational symmetry number  1.
 Rotational temperatures (Kelvin)      0.39393     0.20743     0.14568
 Rotational constants (GHZ):           8.20821     4.32208     3.03553
 Zero-point vibrational energy     298746.2 (Joules/Mol)
                                   71.40205 (Kcal/Mol)
 Vibrational temperatures:    133.55   303.56   367.06   474.17   615.01
          (Kelvin)            696.03   785.27  1082.27  1195.55  1271.33
                             1355.57  1471.45  1536.54  1667.28  1699.29
                             1744.62  1902.81  2022.37  2058.78  2135.29
                             2136.39  2152.51  2173.51  2184.89  2514.97
                             4372.62  4405.36  4466.78  4490.23  4556.87
                             4560.20  4594.98  4734.70

 Zero-point correction=                           0.113786 (Hartree/Particle)
 Thermal correction to Energy=                    0.113786
 Thermal correction to Enthalpy=                  0.113786
 Thermal correction to Gibbs Free Energy=         0.113786
 Sum of electronic and zero-point Energies=           -232.270735
 Sum of electronic and thermal Energies=              -232.270735
 Sum of electronic and thermal Enthalpies=            -232.270735
 Sum of electronic and thermal Free Energies=         -232.270735

                     E (Thermal)             CV                S
                      KCal/Mol        Cal/Mol-Kelvin    Cal/Mol-Kelvin
 Total                   71.402              5.962            -35.952
 Electronic               0.000              0.000              0.000
 Translational            0.000              2.981            -23.882
 Rotational               0.000              2.981            -12.070
 Vibrational             71.402              0.000              0.000

                           ! Non-Optimized Parameters !
 Normal termination of Gaussian 16 at Mon Oct 14 01:56:16 2019.
