 Gaussian 16, Revision A.03,
 Gaussian 16:  ES64L-G16RevA.03 25-Dec-2016

 -------------------------------------------------------------------
 #P opt freq m062x/6-311++g(d,p) geom=connectivity temperature=0.001
 -------------------------------------------------------------------

 --------
 MOP Plus
 --------
 Symbolic Z-matrix:
 Charge =  1 Multiplicity = 1

 SCF Done:  E(RM062X) =  -232.667615990     A.U. after   13 cycles
 SCF Done:  E(RM062X) =  -232.696431035     A.U. after   13 cycles
 SCF Done:  E(RM062X) =  -232.703207676     A.U. after   12 cycles
 SCF Done:  E(RM062X) =  -232.708909478     A.U. after   12 cycles
 SCF Done:  E(RM062X) =  -232.645104409     A.U. after   13 cycles
 SCF Done:  E(RM062X) =  -232.718534172     A.U. after   12 cycles
 SCF Done:  E(RM062X) =  -232.727083293     A.U. after   11 cycles
 SCF Done:  E(RM062X) =  -232.733490461     A.U. after   13 cycles
 SCF Done:  E(RM062X) =  -232.736110319     A.U. after   11 cycles
 SCF Done:  E(RM062X) =  -232.737234720     A.U. after   11 cycles
 SCF Done:  E(RM062X) =  -232.738217478     A.U. after   10 cycles
 SCF Done:  E(RM062X) =  -232.738282413     A.U. after   10 cycles
 SCF Done:  E(RM062X) =  -232.738340718     A.U. after    9 cycles
 SCF Done:  E(RM062X) =  -232.738441603     A.U. after   10 cycles
 SCF Done:  E(RM062X) =  -232.738457722     A.U. after    9 cycles
 SCF Done:  E(RM062X) =  -232.738465509     A.U. after   10 cycles
 SCF Done:  E(RM062X) =  -232.738472130     A.U. after    9 cycles
 SCF Done:  E(RM062X) =  -232.738474495     A.U. after    8 cycles
 SCF Done:  E(RM062X) =  -232.738474896     A.U. after    8 cycles
 Optimization completed.
    -- Stationary point found.
 Normal termination of Gaussian 16 at Mon Oct 14 01:57:14 2019.

 ----------------------------------------------------------------------
 #P Geom=AllCheck Guess=TCheck SCRF=Check GenChk RM062X/6-311++G(d,p) F
 req
 ----------------------------------------------------------------------

 Structure from the checkpoint file:  "mop_plus.chk"
 --------
 MOP Plus
 --------
 Charge =  1 Multiplicity = 1

                         Standard orientation:
 ---------------------------------------------------------------------
 Center     Atomic      Atomic             Coordinates (Angstroms)
 Number     Number       Type             X           Y           Z
 ---------------------------------------------------------------------
      1          6           0       -0.459871   -0.008694    0.002965
      2          6           0       -1.755524   -0.707284   -0.000297
      3          6           0       -0.369631    1.467492    0.004366
      4          8           0        0.566315   -0.741246   -0.006292
      5          6           0        1.925799   -0.207545    0.002573
      6          1           0       -2.366316   -0.314043   -0.819803
      7          1           0       -1.635123   -1.784544   -0.079159
      8          1           0       -2.283003   -0.444269    0.924681
      9          1           0       -1.345579    1.914849    0.175639
     10          1           0        0.346718    1.818958    0.751336
     11          1           0        2.115065    0.237241    0.978289
     12          1           0        2.559336   -1.072581   -0.159100
     13          1           0        2.034396    0.517157   -0.801976
     14          1           0       -0.000657    1.793390   -0.977212
 ---------------------------------------------------------------------

 SCF Done:  E(RM062X) =  -232.738474896     A.U. after    1 cycles

 The electronic state is 1-A.
 Alpha  occ. eigenvalues --  -19.93044 -10.89494 -10.79465 -10.75150 -10.73835
 Alpha  occ. eigenvalues --   -1.47790  -1.12455  -1.04649  -1.00584  -0.86912
 Alpha  occ. eigenvalues --   -0.79673  -0.79533  -0.78373  -0.70038  -0.68321
 Alpha  occ. eigenvalues --   -0.67320  -0.66879  -0.65466  -0.63109  -0.61991
 Alpha virt. eigenvalues --   -0.23335  -0.14662  -0.11820  -0.10881  -0.10530
 Alpha virt. eigenvalues --   -0.09152  -0.08275  -0.08153  -0.07713  -0.06278
 Alpha virt. eigenvalues --   -0.05699  -0.04733  -0.04169  -0.03455  -0.02728

 Mulliken charges:
               1
     1  C    0.449907
     2  C   -0.795528
     3  C   -0.526463
     4  O    0.071396
     5  C   -0.320983
     6  H    0.243190
     7  H    0.225812
     8  H    0.248394
     9  H    0.245051
    10  H    0.216415
    11  H    0.235530
    12  H    0.241198
    13  H    0.204572
    14  H    0.261508
 Sum of Mulliken charges =   1.00000

 Dipole moment (field-independent basis, Debye):
    X=              0.0298    Y=              1.4254    Z=             -0.0097  Tot=              1.4258
 Quadrupole moment (field-independent basis, Debye-Ang):
   XX=            -15.2248   YY=            -25.0385   ZZ=            -27.9543
   XY=              0.3181   XZ=             -0.0132   YZ=             -0.1338

  Exact polarizability:  58.366  -0.853  46.686  -0.004  -0.227  37.108
 Approx polarizability:  61.392  -2.431  53.439  -0.037  -0.395  46.093

                      1                      2                      3
                      A                      A                      A
 Frequencies --    102.4848               151.4557               167.0909
 Red. masses --      1.0565                 1.0238                 1.1874
 Frc consts  --      0.0065                 0.0138                 0.0195
 IR Inten    --      0.0916                 1.3258                 4.9385

                      4                      5                      6
                      A                      A                      A
 Frequencies --    245.4898               306.3070               395.6139
 Red. masses --      2.2638                 2.6736                 2.2436
 Frc consts  --      0.0804                 0.1478                 0.2069
 IR Inten    --      3.7897                 2.5816                 0.2926

                      7                      8                      9
                      A                      A                      A
 Frequencies --    504.4034               547.3760               792.2522
 Red. masses --      1.9942                 3.2108                 3.2684
 Frc consts  --      0.2989                 0.5668                 1.2087
 IR Inten    --      0.6220                 5.9745                 7.4740

                     10                     11                     12
                      A                      A                      A
 Frequencies --    868.4086               957.0911               984.6194
 Red. masses --      1.2483                 2.3017                 1.6452
 Frc consts  --      0.5546                 1.2422                 0.9397
 IR Inten    --      0.8438                33.8352                 2.5839

                     13                     14                     15
                      A                      A                      A
 Frequencies --   1088.7035              1108.4015              1172.2798
 Red. masses --      2.0474                 2.0586                 1.2807
 Frc consts  --      1.4298                 1.4901                 1.0370
 IR Inten    --      9.8687                15.7631                 1.7057

                     16                     17                     18
                      A                      A                      A
 Frequencies --   1206.8763              1326.3559              1379.2120
 Red. masses --      1.3866                 1.8365                 1.2096
 Frc consts  --      1.1900                 1.9035                 1.3557
 IR Inten    --      2.5633                17.8839                55.8834

                     19                     20                     21
                      A                      A                      A
 Frequencies --   1392.7299              1440.0662              1449.3072
 Red. masses --      1.3164                 1.2361                 1.0581
 Frc consts  --      1.5044                 1.5103                 1.3095
 IR Inten    --    124.0913                59.5885                 7.6346

                     22                     23                     24
                      A                      A                      A
 Frequencies --   1460.2656              1469.9647              1484.0517
 Red. masses --      1.0699                 1.1023                 1.1821
 Frc consts  --      1.3442                 1.4034                 1.5340
 IR Inten    --     19.5412                 6.7128                41.5653

                     25                     26                     27
                      A                      A                      A
 Frequencies --   1496.0422              1508.5228              1669.4619
 Red. masses --      1.2052                 1.0428                 4.9202
 Frc consts  --      1.5892                 1.3981                 8.0795
 IR Inten    --     21.7258                36.5224               277.8310

                     28                     29                     30
                      A                      A                      A
 Frequencies --   3045.0113              3051.4690              3099.4993
 Red. masses --      1.0439                 1.0420                 1.0296
 Frc consts  --      5.7026                 5.7165                 5.8278
 IR Inten    --     40.3120                22.5833                 1.4501

                     31                     32                     33
                      A                      A                      A
 Frequencies --   3108.1804              3119.9279              3193.7354
 Red. masses --      1.0955                 1.0904                 1.1027
 Frc consts  --      6.2356                 6.2532                 6.6268
 IR Inten    --      9.6101                 6.7277                 3.0976

                     34                     35                     36
                      A                      A                      A
 Frequencies --   3200.2492              3202.2590              3234.7404
 Red. masses --      1.1107                 1.1038                 1.1087
 Frc consts  --      6.7023                 6.6686                 6.8353
 IR Inten    --      0.0189                 5.7083                 1.8403

 - Thermochemistry -
 -------------------
 Temperature     0.001 Kelvin.  Pressure   1.00000 Atm.
 Atom     1 has atomic number  6 and mass  12.00000

 Molecular mass:    73.06534 amu.
 Principal axes and moments of inertia in atomic units:
                           1         2         3
     Eigenvalues --   217.95417 451.34237 635.39287
           X            0.99974   0.02299   0.00010
           Y           -0.02299   0.99973  -0.00142
           Z           -0.00013   0.00142   1.00000
 This molecule is an asymmetric top.
 Rotational symmetry number  1.
 Rotational temperatures (Kelvin)      0.39740     0.19190     0.13632
 Rotational constants (GHZ):           8.28037     3.99861     2.84035
 Zero-point vibrational energy     328553.8 (Joules/Mol)
                                   78.52624 (Kcal/Mol)
 Vibrational temperatures:    147.45   217.91   240.41   353.21   440.71
          (Kelvin)            569.20   725.72   787.55  1139.87  1249.45
                             1377.04  1416.65  1566.40  1594.74  1686.65
                             1736.43  1908.33  1984.38  2003.83  2071.93
                             2085.23  2101.00  2114.95  2135.22  2152.47
                             2170.43  2401.98  4381.09  4390.38  4459.49
                             4471.98  4488.88  4595.07  4604.44  4607.34
                             4654.07

 Zero-point correction=                           0.125140 (Hartree/Particle)
 Thermal correction to Energy=                    0.125140
 Thermal correction to Enthalpy=                  0.125140
 Thermal correction to Gibbs Free Energy=         0.125140
 Sum of electronic and zero-point Energies=           -232.613335
 Sum of electronic and thermal Energies=              -232.613335
 Sum of electronic and thermal Enthalpies=            -232.613335
 Sum of electronic and thermal Free Energies=         -232.613335

                     E (Thermal)             CV                S
                      KCal/Mol        Cal/Mol-Kelvin    Cal/Mol-Kelvin
 Total                   78.526              5.962            -35.776
 Electronic               0.000              0.000              0.000
 Translational            0.000              2.981            -23.841
 Rotational               0.000              2.981            -11.935
 Vibrational             78.526              0.000              0.000

 Optimization completed.
    -- Stationary point found.
 Normal termination of Gaussian 16 at Mon Oct 14 01:57:51 2019.
