 Gaussian 16, Revision A.03,
 Gaussian 16:  ES64L-G16RevA.03 25-Dec-2016

 --------------------------------------------------------------
 #P opt freq b3lyp/6-31g(d) geom=connectivity temperature=0.001
 --------------------------------------------------------------

 -------------------
 Title Card Required
 -------------------
 Symbolic Z-matrix:
 Charge =  0 Multiplicity = 1

 SCF Done:  E(RB3LYP) =  -288.942360529     A.U. after   13 cycles
 SCF Done:  E(RB3LYP) =  -288.956444169     A.U. after   12 cycles
 SCF Done:  E(RB3LYP) =  -288.961277152     A.U. after   12 cycles
 SCF Done:  E(RB3LYP) =  -288.962332056     A.U. after   11 cycles
 SCF Done:  E(RB3LYP) =  -288.962522878     A.U. after   10 cycles
 SCF Done:  E(RB3LYP) =  -288.962535185     A.U. after    8 cycles
 SCF Done:  E(RB3LYP) =  -288.962538071     A.U. after    8 cycles
 SCF Done:  E(RB3LYP) =  -288.962538448     A.U. after    7 cycles
 Optimization completed.
    -- Stationary point found.
 Normal termination of Gaussian 16 at Mon Oct 14 00:57:25 2019.

 --------------------------------------------------------------------
 #P Geom=AllCheck Guess=TCheck SCRF=Check GenChk RB3LYP/6-31G(d) Freq
 --------------------------------------------------------------------

 Structure from the checkpoint file:  "1.chk"
 -------------------
 Title Card Required
 -------------------
 Charge =  0 Multiplicity = 1

                         Standard orientation:
 ---------------------------------------------------------------------
 Center     Atomic      Atomic             Coordinates (Angstroms)
 Number     Number       Type             X           Y           Z
 ---------------------------------------------------------------------
      1          6           0       -2.475284   -0.042197   -0.344728
      2          6           0       -1.219290   -0.643468    0.278146
      3          7           0       -0.000002   -0.012782   -0.226973
      4          8           0       -0.000121    1.359535    0.175952
      5          6           0        1.219438   -0.643409    0.278304
      6          6           0        2.475320   -0.042144   -0.344789
      7          1           0       -3.369939   -0.542497    0.042256
      8          1           0       -2.545715    1.024655   -0.117738
      9          1           0       -2.452235   -0.157304   -1.433038
     10          1           0       -1.266293   -0.572241    1.385763
     11          1           0       -1.148095   -1.709828    0.032126
     12          1           0       -0.000257    1.354227    1.160672
     13          1           0        1.266414   -0.571788    1.385797
     14          1           0        1.148090   -1.709788    0.032470
     15          1           0        3.370100   -0.542155    0.042318
     16          1           0        2.452359   -0.157536   -1.433049
     17          1           0        2.545448    1.024762   -0.117976
 ---------------------------------------------------------------------

 SCF Done:  E(RB3LYP) =  -288.962538448     A.U. after    1 cycles

 The electronic state is 1-A.
 Alpha  occ. eigenvalues --  -19.16911 -14.37231 -10.21277 -10.21276 -10.17147
 Alpha  occ. eigenvalues --  -10.17147  -1.05809  -0.85262  -0.76611  -0.70496
 Alpha  occ. eigenvalues --   -0.61300  -0.60434  -0.49321  -0.48337  -0.47918
 Alpha  occ. eigenvalues --   -0.44096  -0.40699  -0.39201  -0.37511  -0.36609
 Alpha  occ. eigenvalues --   -0.35071  -0.34237  -0.33739  -0.28297  -0.23121
 Alpha virt. eigenvalues --    0.06291   0.10741   0.11641   0.12036   0.14059
 Alpha virt. eigenvalues --    0.16069   0.16875   0.17130   0.17681   0.18947
 Alpha virt. eigenvalues --    0.20562   0.20613   0.21458   0.24565   0.24941

 Mulliken charges:
               1
     1  C   -0.437802
     2  C   -0.113090
     3  N   -0.157330
     4  O   -0.509720
     5  C   -0.113089
     6  C   -0.437811
     7  H    0.137909
     8  H    0.164739
     9  H    0.158287
    10  H    0.098621
    11  H    0.142938
    12  H    0.363783
    13  H    0.098675
    14  H    0.142938
    15  H    0.137908
    16  H    0.158294
    17  H    0.164751
 Sum of Mulliken charges =  -0.00000

 Dipole moment (field-independent basis, Debye):
    X=              0.0001    Y=             -1.3926    Z=              1.7961  Tot=              2.2727
 Quadrupole moment (field-independent basis, Debye-Ang):
   XX=            -37.5214   YY=            -39.5616   ZZ=            -38.1252
   XY=             -0.0003   XZ=             -0.0001   YZ=              2.2142

  Exact polarizability:  64.225  -0.000  53.426  -0.001   1.337  50.696
 Approx polarizability:  71.873  -0.001  78.120  -0.001   2.614  74.213

                      1                      2                      3
                      A                      A                      A
 Frequencies --    106.8096               136.7326               211.0949
 Red. masses --      2.7892                 1.4573                 2.6285
 Frc consts  --      0.0187                 0.0161                 0.0690
 IR Inten    --      0.3931                 0.1392                 2.4118

                      4                      5                      6
                      A                      A                      A
 Frequencies --    215.5226               247.9313               346.8196
 Red. masses --      1.1319                 1.2845                 2.9087
 Frc consts  --      0.0310                 0.0465                 0.2061
 IR Inten    --      0.0293                 0.0010                 3.8428

                      7                      8                      9
                      A                      A                      A
 Frequencies --    425.3427               430.8526               462.4277
 Red. masses --      3.0205                 1.1541                 2.3353
 Frc consts  --      0.3220                 0.1262                 0.2942
 IR Inten    --      0.0928                87.2914                 4.1941

                     10                     11                     12
                      A                      A                      A
 Frequencies --    553.0788               776.8287               815.0704
 Red. masses --      2.6057                 3.4371                 1.1274
 Frc consts  --      0.4696                 1.2220                 0.4413
 IR Inten    --     31.2115                19.4403                 0.0097

                     13                     14                     15
                      A                      A                      A
 Frequencies --    835.9766               955.6460               958.1286
 Red. masses --      1.1484                 2.3153                 2.4447
 Frc consts  --      0.4729                 1.2458                 1.3223
 IR Inten    --      2.1187                13.3369                 0.0550

                     16                     17                     18
                      A                      A                      A
 Frequencies --   1078.4239              1085.4913              1105.4593
 Red. masses --      3.4292                 1.7533                 1.9185
 Frc consts  --      2.3497                 1.2172                 1.3813
 IR Inten    --      2.4614                25.1001                 0.9711

                     19                     20                     21
                      A                      A                      A
 Frequencies --   1177.0040              1198.7256              1214.2592
 Red. masses --      2.1315                 1.8874                 2.1525
 Frc consts  --      1.7398                 1.5979                 1.8699
 IR Inten    --     12.7553                 0.1894                 0.7550

                     22                     23                     24
                      A                      A                      A
 Frequencies --   1316.3832              1322.2883              1397.8445
 Red. masses --      1.1332                 1.1081                 1.4651
 Frc consts  --      1.1570                 1.1415                 1.6867
 IR Inten    --      1.6814                 3.1837                37.3385

                     25                     26                     27
                      A                      A                      A
 Frequencies --   1416.1522              1434.1616              1438.8130
 Red. masses --      1.2550                 1.2781                 1.2317
 Frc consts  --      1.4829                 1.5488                 1.5023
 IR Inten    --      0.3885                19.6231                27.6378

                     28                     29                     30
                      A                      A                      A
 Frequencies --   1456.7063              1507.0035              1515.1118
 Red. masses --      1.3909                 1.0758                 1.0451
 Frc consts  --      1.7390                 1.4394                 1.4135
 IR Inten    --     24.0968                 2.6722                17.5207

                     31                     32                     33
                      A                      A                      A
 Frequencies --   1515.9427              1520.4286              1540.8726
 Red. masses --      1.0445                 1.0675                 1.0604
 Frc consts  --      1.4143                 1.4539                 1.4834
 IR Inten    --      1.2752                 0.2310                 0.3546

                     34                     35                     36
                      A                      A                      A
 Frequencies --   1543.8642              2897.1898              2910.9420
 Red. masses --      1.0693                 1.0739                 1.0726
 Frc consts  --      1.5017                 5.3111                 5.3552
 IR Inten    --      7.9376                 6.9366               154.9992

                     37                     38                     39
                      A                      A                      A
 Frequencies --   3062.2648              3063.1008              3070.1411
 Red. masses --      1.0390                 1.0368                 1.0839
 Frc consts  --      5.7405                 5.7313                 6.0193
 IR Inten    --     45.4421                 3.3029                 0.2622

                     40                     41                     42
                      A                      A                      A
 Frequencies --   3082.9816              3130.1065              3130.2925
 Red. masses --      1.0864                 1.1023                 1.1022
 Frc consts  --      6.0837                 6.3628                 6.3631
 IR Inten    --     40.7148                14.3917                41.3415

                     43                     44                     45
                      A                      A                      A
 Frequencies --   3149.7873              3150.6610              3481.4487
 Red. masses --      1.1021                 1.1019                 1.0668
 Frc consts  --      6.4424                 6.4446                 7.6183
 IR Inten    --      0.2544                42.7659                 9.4011

 - Thermochemistry -
 -------------------
 Temperature     0.001 Kelvin.  Pressure   1.00000 Atm.
 Atom     1 has atomic number  6 and mass  12.00000

 Molecular mass:    89.08406 amu.
 Principal axes and moments of inertia in atomic units:
                           1         2         3
     Eigenvalues --   235.51506 899.970091026.08227
           X            1.00000   0.00000  -0.00000
           Y           -0.00000   1.00000   0.00037
           Z            0.00000  -0.00037   1.00000
 This molecule is an asymmetric top.
 Rotational symmetry number  1.
 Rotational temperatures (Kelvin)      0.36776     0.09624     0.08441
 Rotational constants (GHZ):           7.66295     2.00533     1.75887
 Zero-point vibrational energy     403094.4 (Joules/Mol)
                                   96.34186 (Kcal/Mol)
 Vibrational temperatures:    153.68   196.73   303.72   310.09   356.72
          (Kelvin)            499.00   611.97   619.90   665.33   795.76
                             1117.68  1172.70  1202.78  1374.96  1378.53
                             1551.61  1561.78  1590.51  1693.45  1724.70
                             1747.05  1893.98  1902.48  2011.19  2037.53
                             2063.44  2070.13  2095.88  2168.24  2179.91
                             2181.10  2187.56  2216.97  2221.28  4168.41
                             4188.20  4405.92  4407.12  4417.25  4435.72
                             4503.53  4503.79  4531.84  4533.10  5009.03

 Zero-point correction=                           0.153531 (Hartree/Particle)
 Thermal correction to Energy=                    0.153531
 Thermal correction to Enthalpy=                  0.153531
 Thermal correction to Gibbs Free Energy=         0.153531
 Sum of electronic and zero-point Energies=           -288.809008
 Sum of electronic and thermal Energies=              -288.809008
 Sum of electronic and thermal Enthalpies=            -288.809008
 Sum of electronic and thermal Free Energies=         -288.809008

                     E (Thermal)             CV                S
                      KCal/Mol        Cal/Mol-Kelvin    Cal/Mol-Kelvin
 Total                   96.342              5.962            -33.946
 Electronic               0.000              0.000              0.000
 Translational            0.000              2.981            -23.250
 Rotational               0.000              2.981            -10.696
 Vibrational             96.342              0.000              0.000

 Optimization completed.
    -- Stationary point found.
 Normal termination of Gaussian 16 at Mon Oct 14 00:57:38 2019.
