 Gaussian 16, Revision A.03,
 Gaussian 16:  ES64L-G16RevA.03 25-Dec-2016

 --------------------------------------------------------------
 #P opt freq b3lyp/6-31g(d) geom=connectivity temperature=0.001
 --------------------------------------------------------------

 -------------------
 Title Card Required
 -------------------
 Symbolic Z-matrix:
 Charge =  0 Multiplicity = 1

 SCF Done:  E(RB3LYP) =  -362.741340462     A.U. after   13 cycles
 SCF Done:  E(RB3LYP) =  -362.750133587     A.U. after   12 cycles
 SCF Done:  E(RB3LYP) =  -362.751994516     A.U. after   12 cycles
 SCF Done:  E(RB3LYP) =  -362.753000938     A.U. after   12 cycles
 SCF Done:  E(RB3LYP) =  -362.755517035     A.U. after   14 cycles
 SCF Done:  E(RB3LYP) =  -362.757082666     A.U. after   11 cycles
 SCF Done:  E(RB3LYP) =  -362.758188396     A.U. after   12 cycles
 SCF Done:  E(RB3LYP) =  -362.758706958     A.U. after   12 cycles
 SCF Done:  E(RB3LYP) =  -362.759876610     A.U. after   12 cycles
 SCF Done:  E(RB3LYP) =  -362.760428140     A.U. after   12 cycles
 SCF Done:  E(RB3LYP) =  -362.760478761     A.U. after    9 cycles
 SCF Done:  E(RB3LYP) =  -362.760486787     A.U. after    9 cycles
 SCF Done:  E(RB3LYP) =  -362.760487496     A.U. after    8 cycles
 Optimization completed.
    -- Stationary point found.
 Normal termination of Gaussian 16 at Mon Oct 14 00:06:07 2019.

 --------------------------------------------------------------------
 #P Geom=AllCheck Guess=TCheck SCRF=Check GenChk RB3LYP/6-31G(d) Freq
 --------------------------------------------------------------------

 Structure from the checkpoint file:  "10.chk"
 -------------------
 Title Card Required
 -------------------
 Charge =  0 Multiplicity = 1

                         Standard orientation:
 ---------------------------------------------------------------------
 Center     Atomic      Atomic             Coordinates (Angstroms)
 Number     Number       Type             X           Y           Z
 ---------------------------------------------------------------------
      1          8           0       -2.706740    0.412023   -0.269881
      2          7           0       -1.827934   -0.602016    0.226452
      3          6           0       -0.460301   -0.261662    0.073221
      4          6           0       -0.025183    1.068541    0.076865
      5          6           0        1.339710    1.349759    0.015366
      6          6           0        2.281834    0.321942   -0.045555
      7          6           0        1.842298   -1.004134   -0.050609
      8          6           0        0.482232   -1.298828    0.003585
      9          1           0       -3.217382    0.653114    0.519984
     10          1           0       -2.055841   -1.438981   -0.306960
     11          1           0       -0.758136    1.865804    0.108956
     12          1           0        1.666369    2.386649    0.012233
     13          1           0        3.342845    0.549279   -0.093034
     14          1           0        2.561251   -1.817585   -0.104726
     15          1           0        0.146824   -2.334060    0.000190
 ---------------------------------------------------------------------

 SCF Done:  E(RB3LYP) =  -362.760487496     A.U. after    1 cycles

 The electronic state is 1-A.
 Alpha  occ. eigenvalues --  -19.18502 -14.39001 -10.22203 -10.18644 -10.18484
 Alpha  occ. eigenvalues --  -10.18464 -10.17906 -10.17800  -1.07095  -0.87530
 Alpha  occ. eigenvalues --   -0.81943  -0.73926  -0.71558  -0.60709  -0.59226
 Alpha  occ. eigenvalues --   -0.52779  -0.51760  -0.48367  -0.45330  -0.43141
 Alpha  occ. eigenvalues --   -0.42612  -0.41494  -0.36682  -0.35411  -0.33873
 Alpha  occ. eigenvalues --   -0.30464  -0.29339  -0.24456  -0.20758
 Alpha virt. eigenvalues --    0.00465   0.01336   0.06775   0.09380   0.10208
 Alpha virt. eigenvalues --    0.13439   0.15673   0.16306   0.17250   0.19287
 Alpha virt. eigenvalues --    0.20137   0.26292   0.30914   0.31698   0.35016

 Mulliken charges:
               1
     1  O   -0.514400
     2  N   -0.431762
     3  C    0.307960
     4  C   -0.154066
     5  C   -0.138043
     6  C   -0.132292
     7  C   -0.135303
     8  C   -0.180976
     9  H    0.417289
    10  H    0.328935
    11  H    0.134000
    12  H    0.127587
    13  H    0.123684
    14  H    0.127631
    15  H    0.119754
 Sum of Mulliken charges =   0.00000

 Dipole moment (field-independent basis, Debye):
    X=             -0.7153    Y=             -0.5248    Z=              0.4494  Tot=              0.9945
 Quadrupole moment (field-independent basis, Debye-Ang):
   XX=            -39.7396   YY=            -40.7285   ZZ=            -49.9788
   XY=              0.2979   XZ=             -2.8752   YZ=              2.3961

  Exact polarizability:  98.850  -0.018  79.395  -2.985   1.531  28.347
 Approx polarizability: 154.113   0.322 133.909  -5.520   1.772  43.108

                      1                      2                      3
                      A                      A                      A
 Frequencies --     88.4798               198.1996               260.9285
 Red. masses --      4.0259                 4.4046                 3.4083
 Frc consts  --      0.0186                 0.1019                 0.1367
 IR Inten    --      0.3829                 4.0410                 1.6128

                      4                      5                      6
                      A                      A                      A
 Frequencies --    364.7581               418.2685               442.2945
 Red. masses --      1.3461                 3.1276                 3.4653
 Frc consts  --      0.1055                 0.3224                 0.3994
 IR Inten    --     75.0949                 1.1409                11.1761

                      7                      8                      9
                      A                      A                      A
 Frequencies --    505.9314               596.5495               631.9810
 Red. masses --      2.9332                 5.4546                 6.4174
 Frc consts  --      0.4424                 1.1437                 1.5101
 IR Inten    --     24.8583                 6.5601                 0.2744

                     10                     11                     12
                      A                      A                      A
 Frequencies --    705.4741               736.1754               779.7631
 Red. masses --      2.3271                 1.9493                 2.2214
 Frc consts  --      0.6824                 0.6224                 0.7958
 IR Inten    --     14.3166                98.3979                90.4121

                     13                     14                     15
                      A                      A                      A
 Frequencies --    838.1810               886.0654               907.1997
 Red. masses --      1.2746                 1.6705                 1.9013
 Frc consts  --      0.5276                 0.7727                 0.9219
 IR Inten    --      0.1689                29.4554                60.9762

                     16                     17                     18
                      A                      A                      A
 Frequencies --    955.4495               983.5809              1012.5528
 Red. masses --      1.3201                 1.2323                 5.9002
 Frc consts  --      0.7100                 0.7024                 3.5641
 IR Inten    --      0.4298                 0.3621                 0.3993

                     19                     20                     21
                      A                      A                      A
 Frequencies --   1039.6132              1057.3460              1118.9665
 Red. masses --      3.3217                 2.1244                 1.5352
 Frc consts  --      2.1152                 1.3994                 1.1325
 IR Inten    --     42.3962                 6.8574                 1.5722

                     22                     23                     24
                      A                      A                      A
 Frequencies --   1190.4544              1205.4078              1272.2518
 Red. masses --      1.0940                 1.1374                 2.8833
 Frc consts  --      0.9135                 0.9737                 2.7497
 IR Inten    --      1.0118                 2.2717                 6.6209

                     25                     26                     27
                      A                      A                      A
 Frequencies --   1348.1622              1367.9664              1405.7897
 Red. masses --      1.8537                 2.7709                 1.2374
 Frc consts  --      1.9851                 3.0551                 1.4408
 IR Inten    --      3.5531                 0.6769                96.9287

                     28                     29                     30
                      A                      A                      A
 Frequencies --   1477.0736              1529.7574              1546.4538
 Red. masses --      1.4671                 1.6279                 2.1952
 Frc consts  --      1.8858                 2.2445                 3.0932
 IR Inten    --      1.0597                19.5350                35.5150

                     31                     32                     33
                      A                      A                      A
 Frequencies --   1651.7412              1666.2286              3170.5045
 Red. masses --      5.2533                 5.5877                 1.0869
 Frc consts  --      8.4443                 9.1401                 6.4370
 IR Inten    --      1.6740                48.6132                11.5183

                     34                     35                     36
                      A                      A                      A
 Frequencies --   3183.9299              3192.8858              3209.2199
 Red. masses --      1.0869                 1.0921                 1.0965
 Frc consts  --      6.4917                 6.5597                 6.6537
 IR Inten    --      0.6088                31.7218                24.9322

                     37                     38                     39
                      A                      A                      A
 Frequencies --   3235.1335              3495.5168              3727.8124
 Red. masses --      1.0917                 1.0761                 1.0685
 Frc consts  --      6.7320                 7.7467                 8.7485
 IR Inten    --      5.0809                 2.6468                42.3206

 - Thermochemistry -
 -------------------
 Temperature     0.001 Kelvin.  Pressure   1.00000 Atm.
 Atom     1 has atomic number  8 and mass  15.99491

 Molecular mass:   109.05276 amu.
 Principal axes and moments of inertia in atomic units:
                           1         2         3
     Eigenvalues --   361.103701187.257061530.83300
           X            0.99999   0.00114  -0.00507
           Y           -0.00108   0.99993   0.01187
           Z            0.00508  -0.01187   0.99992
 This molecule is an asymmetric top.
 Rotational symmetry number  1.
 Rotational temperatures (Kelvin)      0.23986     0.07295     0.05658
 Rotational constants (GHZ):           4.99785     1.52009     1.17893
 Zero-point vibrational energy     319427.1 (Joules/Mol)
                                   76.34492 (Kcal/Mol)
 Vibrational temperatures:    127.30   285.17   375.42   524.81   601.80
          (Kelvin)            636.36   727.92   858.30   909.28  1015.02
                             1059.19  1121.91  1205.96  1274.85  1305.26
                             1374.68  1415.15  1456.84  1495.77  1521.29
                             1609.94  1712.80  1734.31  1830.49  1939.70
                             1968.20  2022.62  2125.18  2200.98  2225.00
                             2376.49  2397.33  4561.65  4580.96  4593.85
                             4617.35  4654.64  5029.27  5363.49

 Zero-point correction=                           0.121663 (Hartree/Particle)
 Thermal correction to Energy=                    0.121663
 Thermal correction to Enthalpy=                  0.121663
 Thermal correction to Gibbs Free Energy=         0.121663
 Sum of electronic and zero-point Energies=           -362.638824
 Sum of electronic and thermal Energies=              -362.638824
 Sum of electronic and thermal Enthalpies=            -362.638824
 Sum of electronic and thermal Free Energies=         -362.638824

                     E (Thermal)             CV                S
                      KCal/Mol        Cal/Mol-Kelvin    Cal/Mol-Kelvin
 Total                   76.345              5.962            -32.246
 Electronic               0.000              0.000              0.000
 Translational            0.000              2.981            -22.647
 Rotational               0.000              2.981             -9.599
 Vibrational             76.345              0.000              0.000

                           ! Non-Optimized Parameters !
 Normal termination of Gaussian 16 at Mon Oct 14 00:06:23 2019.
