 Gaussian 16, Revision A.03,
 Gaussian 16:  ES64L-G16RevA.03 25-Dec-2016

 --------------------------------------------------------------
 #P opt freq b3lyp/6-31g(d) geom=connectivity temperature=0.001
 --------------------------------------------------------------

 -------------------
 Title Card Required
 -------------------
 Symbolic Z-matrix:
 Charge =  1 Multiplicity = 1

 SCF Done:  E(RB3LYP) =  -363.067130340     A.U. after   13 cycles
 SCF Done:  E(RB3LYP) =  -363.094927367     A.U. after   13 cycles
 SCF Done:  E(RB3LYP) =  -363.098773854     A.U. after   12 cycles
 SCF Done:  E(RB3LYP) =  -363.099717113     A.U. after   11 cycles
 SCF Done:  E(RB3LYP) =  -363.100386635     A.U. after   11 cycles
 SCF Done:  E(RB3LYP) =  -363.102035408     A.U. after   12 cycles
 SCF Done:  E(RB3LYP) =  -363.103122062     A.U. after   12 cycles
 SCF Done:  E(RB3LYP) =  -363.105609045     A.U. after   12 cycles
 SCF Done:  E(RB3LYP) =  -363.106815974     A.U. after   12 cycles
 SCF Done:  E(RB3LYP) =  -363.107272032     A.U. after   12 cycles
 SCF Done:  E(RB3LYP) =  -363.107957364     A.U. after   12 cycles
 SCF Done:  E(RB3LYP) =  -363.108310545     A.U. after   12 cycles
 SCF Done:  E(RB3LYP) =  -363.108366663     A.U. after   11 cycles
 SCF Done:  E(RB3LYP) =  -363.108375046     A.U. after    8 cycles
 SCF Done:  E(RB3LYP) =  -363.108378032     A.U. after    8 cycles
 SCF Done:  E(RB3LYP) =  -363.108378635     A.U. after    8 cycles
 SCF Done:  E(RB3LYP) =  -363.108378785     A.U. after    7 cycles
 Optimization completed.
    -- Stationary point found.
 Normal termination of Gaussian 16 at Mon Oct 14 00:13:19 2019.

 --------------------------------------------------------------------
 #P Geom=AllCheck Guess=TCheck SCRF=Check GenChk RB3LYP/6-31G(d) Freq
 --------------------------------------------------------------------

 Structure from the checkpoint file:  "10_p.chk"
 -------------------
 Title Card Required
 -------------------
 Charge =  1 Multiplicity = 1

                         Standard orientation:
 ---------------------------------------------------------------------
 Center     Atomic      Atomic             Coordinates (Angstroms)
 Number     Number       Type             X           Y           Z
 ---------------------------------------------------------------------
      1          8           0       -2.669805    0.205648    0.636735
      2          7           0       -1.853917   -0.187613   -0.476516
      3          6           0       -0.403686   -0.085027   -0.264080
      4          6           0        0.169520    1.185932   -0.203608
      5          6           0        1.541298    1.268063    0.022067
      6          6           0        2.299023    0.102189    0.183816
      7          6           0        1.696616   -1.156889    0.124209
      8          6           0        0.323404   -1.263158   -0.098397
      9          1           0       -2.205643   -0.149027    1.423969
     10          1           0       -2.125412   -1.143341   -0.749219
     11          1           0       -0.433096    2.082248   -0.322627
     12          1           0        2.018670    2.241191    0.069302
     13          1           0        3.368086    0.177504    0.355736
     14          1           0        2.290569   -2.056269    0.247662
     15          1           0       -0.154150   -2.239117   -0.151660
     16          1           0       -2.180211    0.448261   -1.215469
 ---------------------------------------------------------------------

 SCF Done:  E(RB3LYP) =  -363.108378785     A.U. after    1 cycles

 The electronic state is 1-A.
 Alpha  occ. eigenvalues --  -19.41283 -14.71108 -10.42760 -10.38282 -10.37849
 Alpha  occ. eigenvalues --  -10.36249 -10.36195 -10.36061  -1.32491  -1.12491
 Alpha  occ. eigenvalues --   -1.02879  -0.92968  -0.92763  -0.83115  -0.81459
 Alpha  occ. eigenvalues --   -0.76608  -0.75505  -0.73088  -0.67113  -0.63069
 Alpha  occ. eigenvalues --   -0.61745  -0.60342  -0.59952  -0.54788  -0.53275
 Alpha  occ. eigenvalues --   -0.52399  -0.52102  -0.43400  -0.42753
 Alpha virt. eigenvalues --   -0.21100  -0.17733  -0.14756  -0.12732  -0.10159
 Alpha virt. eigenvalues --   -0.09363  -0.06564  -0.00972  -0.00666  -0.00100
 Alpha virt. eigenvalues --    0.02888   0.03450   0.04856   0.12011   0.13527

 Mulliken charges:
               1
     1  O   -0.433529
     2  N   -0.421835
     3  C    0.171294
     4  C   -0.123646
     5  C   -0.131911
     6  C   -0.096292
     7  C   -0.129553
     8  C   -0.149058
     9  H    0.453459
    10  H    0.430856
    11  H    0.195983
    12  H    0.202233
    13  H    0.201337
    14  H    0.201207
    15  H    0.186267
    16  H    0.443189
 Sum of Mulliken charges =   1.00000

 Dipole moment (field-independent basis, Debye):
    X=             -2.9303    Y=             -1.3319    Z=             -1.0943  Tot=              3.3998
 Quadrupole moment (field-independent basis, Debye-Ang):
   XX=            -24.8490   YY=            -34.3759   ZZ=            -41.2741
   XY=              3.5317   XZ=              4.8426   YZ=             -0.8379

  Exact polarizability:  92.491  -0.353  74.770   4.428  -1.131  34.588
 Approx polarizability: 146.343  -1.939 128.126   9.537  -2.068  52.455

                      1                      2                      3
                      A                      A                      A
 Frequencies --     62.9389               144.7800               276.4402
 Red. masses --      3.4210                 4.4716                 1.2192
 Frc consts  --      0.0080                 0.0552                 0.0549
 IR Inten    --      6.3848                 0.4959               122.0537

                      4                      5                      6
                      A                      A                      A
 Frequencies --    317.8221               363.1412               412.4346
 Red. masses --      3.0350                 2.6798                 2.9047
 Frc consts  --      0.1806                 0.2082                 0.2911
 IR Inten    --     18.8214                30.2211                 0.0931

                      7                      8                      9
                      A                      A                      A
 Frequencies --    482.0352               589.1856               625.2046
 Red. masses --      4.1629                 4.4458                 6.3103
 Frc consts  --      0.5699                 0.9093                 1.4533
 IR Inten    --     10.0049                30.5827                 0.2298

                     10                     11                     12
                      A                      A                      A
 Frequencies --    688.9027               762.3630               804.7624
 Red. masses --      2.5818                 1.5113                 4.0952
 Frc consts  --      0.7219                 0.5175                 1.5627
 IR Inten    --     21.0728                54.8022                 2.7742

                     13                     14                     15
                      A                      A                      A
 Frequencies --    833.3034               926.9814               943.4432
 Red. masses --      1.2608                 2.3528                 2.2306
 Frc consts  --      0.5158                 1.1912                 1.1698
 IR Inten    --      0.2737                31.9928                19.8433

                     16                     17                     18
                      A                      A                      A
 Frequencies --    979.4220               986.5237              1017.5620
 Red. masses --      1.5090                 1.3501                 6.2630
 Frc consts  --      0.8528                 0.7741                 3.8208
 IR Inten    --      5.7182                 0.0608                 4.4454

                     19                     20                     21
                      A                      A                      A
 Frequencies --   1032.9677              1047.7954              1124.3088
 Red. masses --      1.3316                 2.3466                 1.5070
 Frc consts  --      0.8371                 1.5179                 1.1224
 IR Inten    --      0.0271                 0.0405                 6.6179

                     22                     23                     24
                      A                      A                      A
 Frequencies --   1166.4035              1207.5382              1214.7656
 Red. masses --      3.0017                 1.1052                 1.1954
 Frc consts  --      2.4061                 0.9495                 1.0393
 IR Inten    --      9.6410                 0.1626                 0.3032

                     25                     26                     27
                      A                      A                      A
 Frequencies --   1282.2019              1370.1787              1377.9027
 Red. masses --      1.1350                 1.4144                 2.8103
 Frc consts  --      1.0994                 1.5645                 3.1436
 IR Inten    --     23.7762                17.7208                32.2253

                     28                     29                     30
                      A                      A                      A
 Frequencies --   1406.8946              1517.9515              1523.3412
 Red. masses --      1.3065                 1.4439                 1.7989
 Frc consts  --      1.5236                 1.9601                 2.4595
 IR Inten    --     44.7530                20.0922                16.4028

                     31                     32                     33
                      A                      A                      A
 Frequencies --   1534.1883              1637.7087              1662.9892
 Red. masses --      1.8355                 5.0282                 5.4972
 Frc consts  --      2.5454                 7.9458                 8.9572
 IR Inten    --     19.5991                 2.9430                 3.6666

                     34                     35                     36
                      A                      A                      A
 Frequencies --   1685.4349              3190.3963              3207.1517
 Red. masses --      1.0897                 1.0917                 1.0914
 Frc consts  --      1.8238                 6.5473                 6.6141
 IR Inten    --     72.8649                 0.8075                 0.4801

                     37                     38                     39
                      A                      A                      A
 Frequencies --   3221.4058              3232.1829              3238.1038
 Red. masses --      1.0900                 1.0939                 1.0979
 Frc consts  --      6.6647                 6.7331                 6.7826
 IR Inten    --      0.0701                 0.0362                 0.0125

                     40                     41                     42
                      A                      A                      A
 Frequencies --   3378.2107              3446.0868              3646.4196
 Red. masses --      1.0572                 1.0955                 1.0682
 Frc consts  --      7.1088                 7.6651                 8.3684
 IR Inten    --     52.5829                79.6581                76.3902

 - Thermochemistry -
 -------------------
 Temperature     0.001 Kelvin.  Pressure   1.00000 Atm.
 Atom     1 has atomic number  8 and mass  15.99491

 Molecular mass:   110.06059 amu.
 Principal axes and moments of inertia in atomic units:
                           1         2         3
     Eigenvalues --   389.841361226.987541501.86830
           X            0.99993   0.00698   0.01003
           Y           -0.00692   0.99995  -0.00651
           Z           -0.01007   0.00644   0.99993
 This molecule is an asymmetric top.
 Rotational symmetry number  1.
 Rotational temperatures (Kelvin)      0.22218     0.07059     0.05767
 Rotational constants (GHZ):           4.62942     1.47087     1.20166
 Zero-point vibrational energy     356306.4 (Joules/Mol)
                                   85.15927 (Kcal/Mol)
 Vibrational temperatures:     90.55   208.31   397.74   457.28   522.48
          (Kelvin)            593.40   693.54   847.71   899.53   991.18
                             1096.87  1157.87  1198.94  1333.72  1357.40
                             1409.17  1419.39  1464.04  1486.21  1507.54
                             1617.63  1678.19  1737.38  1747.78  1844.80
                             1971.38  1982.49  2024.21  2183.99  2191.75
                             2207.35  2356.30  2392.67  2424.96  4590.27
                             4614.38  4634.88  4650.39  4658.91  4860.49
                             4958.15  5246.38

 Zero-point correction=                           0.135710 (Hartree/Particle)
 Thermal correction to Energy=                    0.135710
 Thermal correction to Enthalpy=                  0.135710
 Thermal correction to Gibbs Free Energy=         0.135710
 Sum of electronic and zero-point Energies=           -362.972669
 Sum of electronic and thermal Energies=              -362.972669
 Sum of electronic and thermal Enthalpies=            -362.972669
 Sum of electronic and thermal Free Energies=         -362.972669

                     E (Thermal)             CV                S
                      KCal/Mol        Cal/Mol-Kelvin    Cal/Mol-Kelvin
 Total                   85.159              5.962            -32.129
 Electronic               0.000              0.000              0.000
 Translational            0.000              2.981            -22.620
 Rotational               0.000              2.981             -9.509
 Vibrational             85.159              0.000              0.000

 Optimization completed.
    -- Stationary point found.
 Normal termination of Gaussian 16 at Mon Oct 14 00:13:35 2019.
