 Gaussian 16, Revision A.03,
 Gaussian 16:  ES64L-G16RevA.03 25-Dec-2016

 --------------------------------------------------------------
 #P opt freq b3lyp/6-31g(d) geom=connectivity temperature=0.001
 --------------------------------------------------------------

 -------------------
 Title Card Required
 -------------------
 Symbolic Z-matrix:
 Charge =  0 Multiplicity = 1

 SCF Done:  E(RB3LYP) =  -366.337900381     A.U. after   12 cycles
 SCF Done:  E(RB3LYP) =  -366.359108874     A.U. after   11 cycles
 SCF Done:  E(RB3LYP) =  -366.368697612     A.U. after   11 cycles
 SCF Done:  E(RB3LYP) =  -366.370341766     A.U. after   11 cycles
 SCF Done:  E(RB3LYP) =  -366.381495355     A.U. after   12 cycles
 SCF Done:  E(RB3LYP) =  -366.355250524     A.U. after   13 cycles
 SCF Done:  E(RB3LYP) =  -366.382183511     A.U. after   12 cycles
 SCF Done:  E(RB3LYP) =  -366.387213720     A.U. after   12 cycles
 SCF Done:  E(RB3LYP) =  -366.387989595     A.U. after   11 cycles
 SCF Done:  E(RB3LYP) =  -366.388278079     A.U. after   11 cycles
 SCF Done:  E(RB3LYP) =  -366.388334536     A.U. after   10 cycles
 SCF Done:  E(RB3LYP) =  -366.388348819     A.U. after    8 cycles
 Optimization completed.
    -- Stationary point found.
 Normal termination of Gaussian 16 at Mon Oct 14 00:15:50 2019.

 --------------------------------------------------------------------
 #P Geom=AllCheck Guess=TCheck SCRF=Check GenChk RB3LYP/6-31G(d) Freq
 --------------------------------------------------------------------

 Structure from the checkpoint file:  "11.chk"
 -------------------
 Title Card Required
 -------------------
 Charge =  0 Multiplicity = 1

                         Standard orientation:
 ---------------------------------------------------------------------
 Center     Atomic      Atomic             Coordinates (Angstroms)
 Number     Number       Type             X           Y           Z
 ---------------------------------------------------------------------
      1          8           0       -2.871553    0.438010    0.167042
      2          7           0       -1.953495   -0.620698   -0.213583
      3          6           0       -0.603025   -0.244569    0.234131
      4          6           0       -0.107454    1.116611   -0.284176
      5          6           0        1.323645    1.413999    0.191397
      6          6           0        2.291563    0.288394   -0.204280
      7          6           0        1.796436   -1.076600    0.298270
      8          6           0        0.361440   -1.371176   -0.169087
      9          1           0       -3.500325   -0.039636    0.729939
     10          1           0       -1.967290   -0.565184   -1.235567
     11          1           0       -0.654782   -0.205349    1.331329
     12          1           0       -0.128221    1.099481   -1.385952
     13          1           0       -0.799408    1.902424    0.035074
     14          1           0        1.665278    2.373259   -0.217506
     15          1           0        1.325770    1.525639    1.285948
     16          1           0        2.381786    0.258865   -1.300464
     17          1           0        3.296725    0.493290    0.185826
     18          1           0        2.469029   -1.875249   -0.038962
     19          1           0        1.825462   -1.089223    1.397742
     20          1           0        0.352955   -1.474095   -1.265840
     21          1           0        0.004276   -2.323369    0.239646
 ---------------------------------------------------------------------

 SCF Done:  E(RB3LYP) =  -366.388348819     A.U. after    1 cycles

 The electronic state is 1-A.
 Alpha  occ. eigenvalues --  -19.16027 -14.36175 -10.20500 -10.17985 -10.17916
 Alpha  occ. eigenvalues --  -10.17733 -10.17707 -10.17139  -1.04038  -0.85067
 Alpha  occ. eigenvalues --   -0.79679  -0.73653  -0.70568  -0.60729  -0.59649
 Alpha  occ. eigenvalues --   -0.55633  -0.49183  -0.48237  -0.45018  -0.43915
 Alpha  occ. eigenvalues --   -0.42962  -0.41960  -0.39218  -0.37386  -0.37023
 Alpha  occ. eigenvalues --   -0.34071  -0.33974  -0.31927  -0.31085  -0.30104
 Alpha  occ. eigenvalues --   -0.27443  -0.23109
 Alpha virt. eigenvalues --    0.08117   0.09007   0.09425   0.10924   0.13460
 Alpha virt. eigenvalues --    0.14841   0.15650   0.17087   0.17459   0.18052
 Alpha virt. eigenvalues --    0.18324   0.18797   0.19262   0.19524   0.21846

 Mulliken charges:
               1
     1  O   -0.537346
     2  N   -0.360918
     3  C    0.046022
     4  C   -0.263667
     5  C   -0.262730
     6  C   -0.255251
     7  C   -0.260857
     8  C   -0.268399
     9  H    0.407808
    10  H    0.305376
    11  H    0.127563
    12  H    0.114170
    13  H    0.157891
    14  H    0.132501
    15  H    0.129437
    16  H    0.127508
    17  H    0.130812
    18  H    0.132858
    19  H    0.130650
    20  H    0.121328
    21  H    0.145243
 Sum of Mulliken charges =   0.00000

 Dipole moment (field-independent basis, Debye):
    X=              0.5142    Y=             -0.4258    Z=              0.0599  Tot=              0.6703
 Quadrupole moment (field-independent basis, Debye-Ang):
   XX=            -49.3051   YY=            -52.6136   ZZ=            -47.8476
   XY=              1.3860   XZ=             -1.5930   YZ=              0.2808

  Exact polarizability:  83.534  -1.140  69.902  -1.549   0.581  64.410
 Approx polarizability: 102.755  -2.805  95.004  -2.862   1.709  99.922

                      1                      2                      3
                      A                      A                      A
 Frequencies --    105.5593               150.6850               221.2879
 Red. masses --      3.5893                 2.8734                 3.8318
 Frc consts  --      0.0236                 0.0384                 0.1106
 IR Inten    --      0.1888                 0.2803                 4.0300

                      4                      5                      6
                      A                      A                      A
 Frequencies --    232.8139               309.9680               341.7923
 Red. masses --      1.8020                 1.2751                 1.6328
 Frc consts  --      0.0575                 0.0722                 0.1124
 IR Inten    --      0.0279                43.6411                48.4206

                      7                      8                      9
                      A                      A                      A
 Frequencies --    369.8806               439.2321               463.2457
 Red. masses --      3.2054                 2.8855                 1.8221
 Frc consts  --      0.2584                 0.3280                 0.2304
 IR Inten    --      1.7598                 0.3532                 8.0851

                     10                     11                     12
                      A                      A                      A
 Frequencies --    490.4998               564.1853               794.3717
 Red. masses --      3.1727                 2.0245                 2.2851
 Frc consts  --      0.4497                 0.3797                 0.8496
 IR Inten    --      4.0725                 4.9588                 4.1620

                     13                     14                     15
                      A                      A                      A
 Frequencies --    804.6569               848.9982               880.7462
 Red. masses --      1.5093                 2.6749                 1.7964
 Frc consts  --      0.5758                 1.1360                 0.8210
 IR Inten    --      1.2613                 9.4971                20.6650

                     16                     17                     18
                      A                      A                      A
 Frequencies --    901.3076               919.8826               944.3108
 Red. masses --      2.2450                 1.8399                 1.6807
 Frc consts  --      1.0745                 0.9173                 0.8830
 IR Inten    --      8.7370                19.8723                 5.1331

                     19                     20                     21
                      A                      A                      A
 Frequencies --    988.3719              1029.9668              1039.5148
 Red. masses --      2.7024                 1.7663                 1.7579
 Frc consts  --      1.5554                 1.1040                 1.1192
 IR Inten    --     12.9120                48.1080                 0.6881

                     22                     23                     24
                      A                      A                      A
 Frequencies --   1073.0161              1096.6257              1108.6656
 Red. masses --      1.3295                 1.2197                 2.4051
 Frc consts  --      0.9019                 0.8642                 1.7417
 IR Inten    --      4.3798                 0.4593                 6.5235

                     25                     26                     27
                      A                      A                      A
 Frequencies --   1132.1859              1205.4716              1217.4685
 Red. masses --      2.6136                 2.0848                 1.5051
 Frc consts  --      1.9739                 1.7849                 1.3144
 IR Inten    --      1.8904                11.5271                 0.2037

                     28                     29                     30
                      A                      A                      A
 Frequencies --   1283.8760              1296.6905              1300.5479
 Red. masses --      1.3037                 1.2627                 1.2692
 Frc consts  --      1.2661                 1.2509                 1.2649
 IR Inten    --      7.0425                 8.3550                 2.8209

                     31                     32                     33
                      A                      A                      A
 Frequencies --   1334.1511              1344.3273              1380.2566
 Red. masses --      1.1992                 1.2839                 1.3311
 Frc consts  --      1.2576                 1.3671                 1.4941
 IR Inten    --      8.9597                 7.6342                18.9839

                     34                     35                     36
                      A                      A                      A
 Frequencies --   1385.9721              1397.6252              1400.8142
 Red. masses --      1.3737                 1.4253                 1.4830
 Frc consts  --      1.5547                 1.6404                 1.7145
 IR Inten    --      3.4764                 1.2982                 2.6304

                     37                     38                     39
                      A                      A                      A
 Frequencies --   1406.1328              1419.9886              1507.3334
 Red. masses --      1.4579                 1.3615                 1.0918
 Frc consts  --      1.6983                 1.6175                 1.4615
 IR Inten    --      5.2097                18.1029                 6.2259

                     40                     41                     42
                      A                      A                      A
 Frequencies --   1513.5671              1515.5671              1518.8678
 Red. masses --      1.0892                 1.0922                 1.0983
 Frc consts  --      1.4701                 1.4782                 1.4928
 IR Inten    --      1.1045                 1.1446                 2.1691

                     43                     44                     45
                      A                      A                      A
 Frequencies --   1523.7592              1537.4222              3004.0542
 Red. masses --      1.0816                 1.0999                 1.0717
 Frc consts  --      1.4796                 1.5317                 5.6981
 IR Inten    --     13.3338                 1.2223                 9.8315

                     46                     47                     48
                      A                      A                      A
 Frequencies --   3010.1572              3019.5506              3024.3681
 Red. masses --      1.0708                 1.0713                 1.0641
 Frc consts  --      5.7168                 5.7552                 5.7346
 IR Inten    --     21.3134                13.1133                18.2513

                     49                     50                     51
                      A                      A                      A
 Frequencies --   3027.1490              3039.3871              3070.5603
 Red. masses --      1.0630                 1.0799                 1.0933
 Frc consts  --      5.7394                 5.8779                 6.0731
 IR Inten    --     24.7241                59.5756                64.0223

                     52                     53                     54
                      A                      A                      A
 Frequencies --   3071.4495              3076.8199              3087.8770
 Red. masses --      1.0982                 1.1020                 1.0946
 Frc consts  --      6.1038                 6.1468                 6.1491
 IR Inten    --     51.7291                69.0251                48.6831

                     55                     56                     57
                      A                      A                      A
 Frequencies --   3106.5645              3421.7287              3745.0808
 Red. masses --      1.0919                 1.0748                 1.0684
 Frc consts  --      6.2088                 7.4145                 8.8288
 IR Inten    --     24.4324                 3.6280                29.3445

 - Thermochemistry -
 -------------------
 Temperature     0.001 Kelvin.  Pressure   1.00000 Atm.
 Atom     1 has atomic number  8 and mass  15.99491

 Molecular mass:   115.09971 amu.
 Principal axes and moments of inertia in atomic units:
                           1         2         3
     Eigenvalues --   462.441921356.990211691.17158
           X            1.00000   0.00312   0.00001
           Y           -0.00312   1.00000  -0.00001
           Z           -0.00001   0.00001   1.00000
 This molecule is an asymmetric top.
 Rotational symmetry number  1.
 Warning -- assumption of classical behavior for rotation
           may cause significant error
 Rotational temperatures (Kelvin)      0.18730     0.06383     0.05122
 Rotational constants (GHZ):           3.90263     1.32996     1.06715
 Zero-point vibrational energy     505101.4 (Joules/Mol)
                                  120.72213 (Kcal/Mol)
 Vibrational temperatures:    151.88   216.80   318.38   334.97   445.97
          (Kelvin)            491.76   532.18   631.96   666.51   705.72
                              811.74  1142.92  1157.72  1221.52  1267.20
                             1296.78  1323.51  1358.65  1422.05  1481.89
                             1495.63  1543.83  1577.80  1595.12  1628.96
                             1734.40  1751.67  1847.21  1865.65  1871.20
                             1919.55  1934.19  1985.88  1994.10  2010.87
                             2015.46  2023.11  2043.05  2168.72  2177.69
                             2180.56  2185.31  2192.35  2212.01  4322.16
                             4330.94  4344.46  4351.39  4355.39  4373.00
                             4417.85  4419.13  4426.86  4442.77  4469.65
                             4923.10  5388.34

 Zero-point correction=                           0.192383 (Hartree/Particle)
 Thermal correction to Energy=                    0.192383
 Thermal correction to Enthalpy=                  0.192383
 Thermal correction to Gibbs Free Energy=         0.192383
 Sum of electronic and zero-point Energies=           -366.195966
 Sum of electronic and thermal Energies=              -366.195966
 Sum of electronic and thermal Enthalpies=            -366.195966
 Sum of electronic and thermal Free Energies=         -366.195966

                     E (Thermal)             CV                S
                      KCal/Mol        Cal/Mol-Kelvin    Cal/Mol-Kelvin
 Total                  120.722              5.962            -31.608
 Electronic               0.000              0.000              0.000
 Translational            0.000              2.981            -22.486
 Rotational               0.000              2.981             -9.121
 Vibrational            120.722              0.000              0.000

 Optimization completed.
    -- Stationary point found.
 Normal termination of Gaussian 16 at Mon Oct 14 00:16:15 2019.
