 Gaussian 16, Revision A.03,
 Gaussian 16:  ES64L-G16RevA.03 25-Dec-2016

 --------------------------------------------------------------
 #P opt freq b3lyp/6-31g(d) geom=connectivity temperature=0.001
 --------------------------------------------------------------

 -------------------
 Title Card Required
 -------------------
 Symbolic Z-matrix:
 Charge =  1 Multiplicity = 1

 SCF Done:  E(RB3LYP) =  -366.714804501     A.U. after   13 cycles
 SCF Done:  E(RB3LYP) =  -366.737523133     A.U. after   11 cycles
 SCF Done:  E(RB3LYP) =  -366.746691016     A.U. after   11 cycles
 SCF Done:  E(RB3LYP) =  -366.747073636     A.U. after   10 cycles
 SCF Done:  E(RB3LYP) =  -366.747669346     A.U. after   11 cycles
 SCF Done:  E(RB3LYP) =  -366.747834587     A.U. after   12 cycles
 SCF Done:  E(RB3LYP) =  -366.748120938     A.U. after   10 cycles
 SCF Done:  E(RB3LYP) =  -366.748368465     A.U. after   11 cycles
 SCF Done:  E(RB3LYP) =  -366.748376442     A.U. after    9 cycles
 SCF Done:  E(RB3LYP) =  -366.748377380     A.U. after    7 cycles
 SCF Done:  E(RB3LYP) =  -366.748377496     A.U. after    7 cycles
 Optimization completed.
    -- Stationary point found.
 Normal termination of Gaussian 16 at Mon Oct 14 00:21:15 2019.

 --------------------------------------------------------------------
 #P Geom=AllCheck Guess=TCheck SCRF=Check GenChk RB3LYP/6-31G(d) Freq
 --------------------------------------------------------------------

 Structure from the checkpoint file:  "11_p.chk"
 -------------------
 Title Card Required
 -------------------
 Charge =  1 Multiplicity = 1

                         Standard orientation:
 ---------------------------------------------------------------------
 Center     Atomic      Atomic             Coordinates (Angstroms)
 Number     Number       Type             X           Y           Z
 ---------------------------------------------------------------------
      1          8           0        2.939578    0.424578   -0.120536
      2          7           0        1.939675   -0.511131    0.233487
      3          6           0        0.524203   -0.207390   -0.264406
      4          6           0        0.060285    1.146491    0.271004
      5          6           0       -1.389232    1.410599   -0.184233
      6          6           0       -2.329653    0.267573    0.223785
      7          6           0       -1.827943   -1.087780   -0.294665
      8          6           0       -0.380558   -1.370089    0.161949
      9          1           0        2.920005    0.481650   -1.097675
     10          1           0        2.241912   -1.455811   -0.050014
     11          1           0        0.622882   -0.188324   -1.357579
     12          1           0        0.099186    1.128408    1.370340
     13          1           0        0.726899    1.946036   -0.066532
     14          1           0       -1.722196    2.360023    0.246293
     15          1           0       -1.408516    1.539634   -1.275006
     16          1           0       -2.414730    0.233766    1.318719
     17          1           0       -3.336759    0.458922   -0.160573
     18          1           0       -2.468223   -1.902205    0.058022
     19          1           0       -1.868656   -1.108993   -1.391881
     20          1           0       -0.359852   -1.466140    1.257275
     21          1           0       -0.026205   -2.318481   -0.263250
     22          1           0        1.957292   -0.483624    1.261141
 ---------------------------------------------------------------------

 SCF Done:  E(RB3LYP) =  -366.748377496     A.U. after    1 cycles

 The electronic state is 1-A.
 Alpha  occ. eigenvalues --  -19.41940 -14.70287 -10.43085 -10.36182 -10.35264
 Alpha  occ. eigenvalues --  -10.32876 -10.32491 -10.31379  -1.33126  -1.11632
 Alpha  occ. eigenvalues --   -0.99437  -0.90752  -0.90534  -0.82744  -0.79869
 Alpha  occ. eigenvalues --   -0.76930  -0.75738  -0.70685  -0.70178  -0.63613
 Alpha  occ. eigenvalues --   -0.61644  -0.59872  -0.58890  -0.56289  -0.54828
 Alpha  occ. eigenvalues --   -0.53157  -0.52577  -0.52156  -0.50070  -0.46686
 Alpha  occ. eigenvalues --   -0.46402  -0.45814
 Alpha virt. eigenvalues --   -0.15835  -0.15056  -0.11097  -0.08628  -0.07720
 Alpha virt. eigenvalues --   -0.03739  -0.01555  -0.01086   0.00340   0.00832
 Alpha virt. eigenvalues --    0.02125   0.02618   0.03699   0.03937   0.04170

 Mulliken charges:
               1
     1  O   -0.426271
     2  N   -0.350202
     3  C   -0.052770
     4  C   -0.275446
     5  C   -0.280031
     6  C   -0.274387
     7  C   -0.277133
     8  C   -0.306501
     9  H    0.457650
    10  H    0.420572
    11  H    0.196430
    12  H    0.162974
    13  H    0.186299
    14  H    0.188488
    15  H    0.161343
    16  H    0.157821
    17  H    0.184016
    18  H    0.188743
    19  H    0.164306
    20  H    0.169381
    21  H    0.171785
    22  H    0.432933
 Sum of Mulliken charges =   1.00000

 Dipole moment (field-independent basis, Debye):
    X=              4.7131    Y=             -2.2709    Z=             -0.5759  Tot=              5.2633
 Quadrupole moment (field-independent basis, Debye-Ang):
   XX=            -30.6965   YY=            -42.2908   ZZ=            -42.4665
   XY=             -5.0508   XZ=             -2.7203   YZ=             -1.4736

  Exact polarizability:  81.754   1.347  69.962  -0.797  -0.719  62.477
 Approx polarizability: 102.879   3.459  94.956  -0.806  -1.522  96.738

                      1                      2                      3
                      A                      A                      A
 Frequencies --     97.8638               141.4641               211.5139
 Red. masses --      3.1676                 2.2974                 3.4348
 Frc consts  --      0.0179                 0.0271                 0.0905
 IR Inten    --      4.5315                 2.7354                10.7732

                      4                      5                      6
                      A                      A                      A
 Frequencies --    228.0344               286.4166               330.3422
 Red. masses --      1.8006                 1.2434                 1.6848
 Frc consts  --      0.0552                 0.0601                 0.1083
 IR Inten    --      0.3218               116.5618                43.7706

                      7                      8                      9
                      A                      A                      A
 Frequencies --    349.5075               432.6314               444.9314
 Red. masses --      3.5857                 2.4621                 2.1937
 Frc consts  --      0.2581                 0.2715                 0.2559
 IR Inten    --      2.9088                 7.9610                 6.0850

                     10                     11                     12
                      A                      A                      A
 Frequencies --    475.3372               547.7858               789.2890
 Red. masses --      3.1351                 1.7594                 2.3120
 Frc consts  --      0.4174                 0.3110                 0.8486
 IR Inten    --      8.6435                 9.4492                 1.3335

                     13                     14                     15
                      A                      A                      A
 Frequencies --    805.1429               844.0728               864.1157
 Red. masses --      1.4811                 3.0506                 1.4802
 Frc consts  --      0.5657                 1.2806                 0.6512
 IR Inten    --      0.0269                 1.2290                 1.5926

                     16                     17                     18
                      A                      A                      A
 Frequencies --    882.5279               912.7019               944.3229
 Red. masses --      3.0609                 1.7816                 1.5367
 Frc consts  --      1.4046                 0.8744                 0.8074
 IR Inten    --      4.3476                 5.4827                 2.3504

                     19                     20                     21
                      A                      A                      A
 Frequencies --    965.8983              1022.0544              1027.3522
 Red. masses --      1.4574                 3.2802                 3.5197
 Frc consts  --      0.8011                 2.0188                 2.1888
 IR Inten    --     11.9305                 2.9538                39.1502

                     22                     23                     24
                      A                      A                      A
 Frequencies --   1043.1985              1082.2935              1094.2873
 Red. masses --      2.4473                 1.3126                 2.3126
 Frc consts  --      1.5692                 0.9059                 1.6316
 IR Inten    --      1.1373                 0.8609                 0.7458

                     25                     26                     27
                      A                      A                      A
 Frequencies --   1120.7371              1180.3121              1228.7224
 Red. masses --      1.3046                 2.0496                 1.4046
 Frc consts  --      0.9655                 1.6823                 1.2495
 IR Inten    --      3.5529                13.6908                 1.3552

                     28                     29                     30
                      A                      A                      A
 Frequencies --   1258.3012              1297.1951              1303.7318
 Red. masses --      1.1720                 1.2167                 1.2729
 Frc consts  --      1.0933                 1.2063                 1.2747
 IR Inten    --     21.2450                 4.3245                 2.6180

                     31                     32                     33
                      A                      A                      A
 Frequencies --   1321.5057              1347.0626              1372.2418
 Red. masses --      1.2733                 1.2234                 1.2486
 Frc consts  --      1.3101                 1.3080                 1.3853
 IR Inten    --     10.2887                 6.9731                 1.4083

                     34                     35                     36
                      A                      A                      A
 Frequencies --   1381.4146              1389.7530              1400.4517
 Red. masses --      1.3118                 1.3501                 1.3655
 Frc consts  --      1.4749                 1.5364                 1.5779
 IR Inten    --      0.6639                 1.4068                22.1396

                     37                     38                     39
                      A                      A                      A
 Frequencies --   1406.9692              1430.1214              1444.9975
 Red. masses --      1.4477                 1.3257                 1.2550
 Frc consts  --      1.6885                 1.5975                 1.5439
 IR Inten    --      0.2485                10.3880                63.2447

                     40                     41                     42
                      A                      A                      A
 Frequencies --   1509.3211              1515.4729              1516.5821
 Red. masses --      1.0903                 1.0916                 1.0928
 Frc consts  --      1.4634                 1.4771                 1.4809
 IR Inten    --      0.1607                 8.2291                 7.5929

                     43                     44                     45
                      A                      A                      A
 Frequencies --   1522.9936              1530.5870              1539.7593
 Red. masses --      1.0955                 1.1279                 1.1338
 Frc consts  --      1.4972                 1.5568                 1.5837
 IR Inten    --     14.9997                14.2392                17.0067

                     46                     47                     48
                      A                      A                      A
 Frequencies --   1679.9535              3028.9373              3032.7418
 Red. masses --      1.0623                 1.0629                 1.0679
 Frc consts  --      1.7665                 5.7455                 5.7871
 IR Inten    --     45.9084                 8.2850                12.3070

                     49                     50                     51
                      A                      A                      A
 Frequencies --   3042.4647              3050.3016              3056.5246
 Red. masses --      1.0720                 1.0690                 1.0660
 Frc consts  --      5.8465                 5.8600                 5.8674
 IR Inten    --      5.9862                 3.7317                32.3231

                     52                     53                     54
                      A                      A                      A
 Frequencies --   3065.6386              3083.3468              3110.8991
 Red. masses --      1.0875                 1.0982                 1.0951
 Frc consts  --      6.0217                 6.1514                 6.2443
 IR Inten    --      3.9233                30.9362                14.0292

                     55                     56                     57
                      A                      A                      A
 Frequencies --   3115.5198              3116.2566              3117.4990
 Red. masses --      1.0955                 1.0968                 1.1011
 Frc consts  --      6.2650                 6.2755                 6.3049
 IR Inten    --     12.8756                 2.2088                23.5077

                     58                     59                     60
                      A                      A                      A
 Frequencies --   3360.9668              3449.4776              3660.5363
 Red. masses --      1.0589                 1.0931                 1.0683
 Frc consts  --      7.0475                 7.6635                 8.4336
 IR Inten    --     29.3920                61.4852                87.6131

 - Thermochemistry -
 -------------------
 Temperature     0.001 Kelvin.  Pressure   1.00000 Atm.
 Atom     1 has atomic number  8 and mass  15.99491

 Molecular mass:   116.10754 amu.
 Principal axes and moments of inertia in atomic units:
                           1         2         3
     Eigenvalues --   469.587631404.310371739.99278
           X            0.99996  -0.00883  -0.00240
           Y            0.00882   0.99995  -0.00352
           Z            0.00243   0.00350   0.99999
 This molecule is an asymmetric top.
 Rotational symmetry number  1.
 Warning -- assumption of classical behavior for rotation
           may cause significant error
 Rotational temperatures (Kelvin)      0.18445     0.06168     0.04978
 Rotational constants (GHZ):           3.84325     1.28514     1.03721
 Zero-point vibrational energy     543178.7 (Joules/Mol)
                                  129.82282 (Kcal/Mol)
 Vibrational temperatures:    140.80   203.54   304.32   328.09   412.09
          (Kelvin)            475.29   502.86   622.46   640.16   683.90
                              788.14  1135.61  1158.42  1214.43  1243.27
                             1269.76  1313.17  1358.67  1389.71  1470.51
                             1478.13  1500.93  1557.18  1574.44  1612.49
                             1698.21  1767.86  1810.41  1866.37  1875.78
                             1901.35  1938.12  1974.35  1987.55  1999.54
                             2014.94  2024.31  2057.63  2079.03  2171.58
                             2180.43  2182.02  2191.25  2202.17  2215.37
                             2417.08  4357.97  4363.44  4377.43  4388.70
                             4397.66  4410.77  4436.25  4475.89  4482.54
                             4483.60  4485.39  4835.68  4963.03  5266.70

 Zero-point correction=                           0.206886 (Hartree/Particle)
 Thermal correction to Energy=                    0.206886
 Thermal correction to Enthalpy=                  0.206886
 Thermal correction to Gibbs Free Energy=         0.206886
 Sum of electronic and zero-point Energies=           -366.541492
 Sum of electronic and thermal Energies=              -366.541492
 Sum of electronic and thermal Enthalpies=            -366.541492
 Sum of electronic and thermal Free Energies=         -366.541492

                     E (Thermal)             CV                S
                      KCal/Mol        Cal/Mol-Kelvin    Cal/Mol-Kelvin
 Total                  129.823              5.962            -31.504
 Electronic               0.000              0.000              0.000
 Translational            0.000              2.981            -22.460
 Rotational               0.000              2.981             -9.044
 Vibrational            129.823              0.000              0.000

 Optimization completed.
    -- Stationary point found.
 Normal termination of Gaussian 16 at Mon Oct 14 00:21:41 2019.
