 Gaussian 16, Revision A.03,
 Gaussian 16:  ES64L-G16RevA.03 25-Dec-2016

 --------------------------------------------------------------
 #P opt freq b3lyp/6-31g(d) geom=connectivity temperature=0.001
 --------------------------------------------------------------

 -------------------
 Title Card Required
 -------------------
 Symbolic Z-matrix:
 Charge =  0 Multiplicity = 1

 SCF Done:  E(RB3LYP) =  -590.595094555     A.U. after   15 cycles
 SCF Done:  E(RB3LYP) =  -590.618739106     A.U. after   12 cycles
 SCF Done:  E(RB3LYP) =  -590.623045886     A.U. after   12 cycles
 SCF Done:  E(RB3LYP) =  -590.623433626     A.U. after   11 cycles
 SCF Done:  E(RB3LYP) =  -590.624177370     A.U. after   12 cycles
 SCF Done:  E(RB3LYP) =  -590.625755519     A.U. after   13 cycles
 SCF Done:  E(RB3LYP) =  -590.627891722     A.U. after   11 cycles
 SCF Done:  E(RB3LYP) =  -590.635586578     A.U. after   13 cycles
 SCF Done:  E(RB3LYP) =  -590.638844234     A.U. after   12 cycles
 SCF Done:  E(RB3LYP) =  -590.640142679     A.U. after   12 cycles
 SCF Done:  E(RB3LYP) =  -590.641085597     A.U. after    8 cycles
 SCF Done:  E(RB3LYP) =  -590.641085844     A.U. after    9 cycles
 SCF Done:  E(RB3LYP) =  -590.641086258     A.U. after    9 cycles
 SCF Done:  E(RB3LYP) =  -590.641086715     A.U. after   10 cycles
 SCF Done:  E(RB3LYP) =  -590.641087165     A.U. after   10 cycles
 SCF Done:  E(RB3LYP) =  -590.641087579     A.U. after   10 cycles
 SCF Done:  E(RB3LYP) =  -590.641087888     A.U. after   10 cycles
 SCF Done:  E(RB3LYP) =  -590.641087943     A.U. after    8 cycles
 SCF Done:  E(RB3LYP) =  -590.641087943     A.U. after    7 cycles
 Optimization completed.
    -- Stationary point found.
 Normal termination of Gaussian 16 at Mon Oct 14 00:23:06 2019.

 --------------------------------------------------------------------
 #P Geom=AllCheck Guess=TCheck SCRF=Check GenChk RB3LYP/6-31G(d) Freq
 --------------------------------------------------------------------

 Structure from the checkpoint file:  "12.chk"
 -------------------
 Title Card Required
 -------------------
 Charge =  0 Multiplicity = 1

                         Standard orientation:
 ---------------------------------------------------------------------
 Center     Atomic      Atomic             Coordinates (Angstroms)
 Number     Number       Type             X           Y           Z
 ---------------------------------------------------------------------
      1          8           0       -2.763276   -0.975976    0.917885
      2          6           0       -2.324099   -0.147885    0.153533
      3          7           0       -3.076934    0.829145   -0.497842
      4          8           0       -4.409076    0.446036   -0.756240
      5          8           0       -1.016966    0.053849   -0.139733
      6          6           0       -0.089080   -0.775093    0.608248
      7          6           0        1.310007   -0.334015    0.273197
      8          6           0        1.781800    0.912727    0.706308
      9          6           0        3.077187    1.324826    0.400331
     10          6           0        3.921015    0.490703   -0.338601
     11          6           0        3.461085   -0.752771   -0.771944
     12          6           0        2.159878   -1.159705   -0.469379
     13          1           0       -2.665418    1.179107   -1.356992
     14          1           0       -4.901992    0.825039   -0.009702
     15          1           0       -0.312460   -0.662005    1.673857
     16          1           0       -0.258262   -1.822182    0.341174
     17          1           0        1.126125    1.561922    1.281573
     18          1           0        3.431786    2.293779    0.741478
     19          1           0        4.932967    0.809909   -0.573204
     20          1           0        4.112019   -1.405843   -1.346922
     21          1           0        1.801572   -2.127731   -0.811824
 ---------------------------------------------------------------------

 SCF Done:  E(RB3LYP) =  -590.641087943     A.U. after    1 cycles

 The electronic state is 1-A.
 Alpha  occ. eigenvalues --  -19.19419 -19.19265 -19.12819 -14.40583 -10.33406
 Alpha  occ. eigenvalues --  -10.24974 -10.20322 -10.19731 -10.19693 -10.19645
 Alpha  occ. eigenvalues --  -10.19603 -10.19589  -1.11574  -1.07566  -1.01310
 Alpha  occ. eigenvalues --   -0.86593  -0.85360  -0.77642  -0.75029  -0.69799
 Alpha  occ. eigenvalues --   -0.61460  -0.61019  -0.58493  -0.55623  -0.52953
 Alpha  occ. eigenvalues --   -0.51788  -0.49321  -0.47144  -0.45848  -0.45191
 Alpha  occ. eigenvalues --   -0.43727  -0.42579  -0.42240  -0.39471  -0.37944
 Alpha  occ. eigenvalues --   -0.36617  -0.34803  -0.34595  -0.31781  -0.30197
 Alpha  occ. eigenvalues --   -0.28371  -0.26490  -0.25620  -0.25096
 Alpha virt. eigenvalues --   -0.01483  -0.00596   0.03145   0.07052   0.08639
 Alpha virt. eigenvalues --    0.09640   0.11699   0.12460   0.13181   0.14904
 Alpha virt. eigenvalues --    0.16088   0.17111   0.17771   0.18810   0.20287

 Mulliken charges:
               1
     1  O   -0.487708
     2  C    0.786351
     3  N   -0.405249
     4  O   -0.492957
     5  O   -0.482623
     6  C   -0.121943
     7  C    0.144657
     8  C   -0.160454
     9  C   -0.130644
    10  C   -0.125920
    11  C   -0.128329
    12  C   -0.177773
    13  H    0.349924
    14  H    0.424582
    15  H    0.171513
    16  H    0.165977
    17  H    0.135424
    18  H    0.134267
    19  H    0.133691
    20  H    0.134270
    21  H    0.132944
 Sum of Mulliken charges =  -0.00000

 Dipole moment (field-independent basis, Debye):
    X=              1.8515    Y=              1.6605    Z=             -0.5243  Tot=              2.5417
 Quadrupole moment (field-independent basis, Debye-Ang):
   XX=            -64.1742   YY=            -65.4466   ZZ=            -68.7528
   XY=             -7.4141   XZ=             -1.1229   YZ=              3.1832

  Exact polarizability: 135.109   5.033  89.163 -13.996   9.913  63.259
 Approx polarizability: 179.064  12.856 150.609 -27.957  18.358 102.038

                      1                      2                      3
                      A                      A                      A
 Frequencies --      6.2900                24.9637                69.4095
 Red. masses --      4.0249                 6.5207                 5.5215
 Frc consts  --      0.0001                 0.0024                 0.0157
 IR Inten    --      0.2191                 2.6115                 0.4739

                      4                      5                      6
                      A                      A                      A
 Frequencies --    110.5066               174.8718               192.3123
 Red. masses --      5.0043                 5.1054                 2.2813
 Frc consts  --      0.0360                 0.0920                 0.0497
 IR Inten    --      3.3526                 2.1950                25.2481

                      7                      8                      9
                      A                      A                      A
 Frequencies --    235.7648               262.1616               319.8944
 Red. masses --      2.1978                 3.2666                 3.4288
 Frc consts  --      0.0720                 0.1323                 0.2067
 IR Inten    --     63.7147                11.5159                 7.7567

                     10                     11                     12
                      A                      A                      A
 Frequencies --    333.1290               416.2299               455.0387
 Red. masses --      3.6341                 2.9645                 4.0962
 Frc consts  --      0.2376                 0.3026                 0.4997
 IR Inten    --      3.2230                 0.4224                 4.1105

                     13                     14                     15
                      A                      A                      A
 Frequencies --    546.6243               578.7698               618.5099
 Red. masses --      4.3767                 4.6975                 2.0588
 Frc consts  --      0.7705                 0.9271                 0.4640
 IR Inten    --      6.9113                20.0898               104.8495

                     16                     17                     18
                      A                      A                      A
 Frequencies --    636.0675               711.9637               763.5930
 Red. masses --      6.3043                 1.9696                 1.8529
 Frc consts  --      1.5028                 0.5882                 0.6366
 IR Inten    --      0.4450                16.1680                71.6384

                     19                     20                     21
                      A                      A                      A
 Frequencies --    775.3141               785.1932               860.5828
 Red. masses --      6.2955                 4.2716                 1.2524
 Frc consts  --      2.2296                 1.5516                 0.5465
 IR Inten    --     11.5340                59.0636                 0.0589

                     22                     23                     24
                      A                      A                      A
 Frequencies --    867.2321               927.5446               967.5641
 Red. masses --      3.2034                 1.4480                 1.3555
 Frc consts  --      1.4195                 0.7340                 0.7477
 IR Inten    --     23.6603                 5.9583                 0.0419

                     25                     26                     27
                      A                      A                      A
 Frequencies --    986.3703               996.7624              1004.1589
 Red. masses --      2.9529                 1.4076                 2.1944
 Frc consts  --      1.6927                 0.8240                 1.3037
 IR Inten    --      8.5141                 3.3570                 8.4940

                     28                     29                     30
                      A                      A                      A
 Frequencies --   1019.8739              1038.8155              1058.8406
 Red. masses --      6.1493                 4.2978                 2.1980
 Frc consts  --      3.7685                 2.7326                 1.4519
 IR Inten    --      1.6923                17.2067                 1.9520

                     31                     32                     33
                      A                      A                      A
 Frequencies --   1117.6127              1122.4075              1194.0206
 Red. masses --      2.4917                 2.4977                 1.1032
 Frc consts  --      1.8337                 1.8539                 0.9267
 IR Inten    --    125.4897               127.5239                 0.0690

                     34                     35                     36
                      A                      A                      A
 Frequencies --   1214.0069              1244.1591              1252.9956
 Red. masses --      1.1387                 2.6762                 2.7344
 Frc consts  --      0.9888                 2.4407                 2.5293
 IR Inten    --      3.1051                46.5293               409.7996

                     37                     38                     39
                      A                      A                      A
 Frequencies --   1262.6132              1359.4479              1368.2302
 Red. masses --      1.1784                 3.4746                 1.4770
 Frc consts  --      1.1068                 3.7834                 1.6291
 IR Inten    --      5.6051                 2.3817                 1.7631

                     40                     41                     42
                      A                      A                      A
 Frequencies --   1406.9489              1439.6932              1502.7491
 Red. masses --      1.3281                 1.4710                 2.1896
 Frc consts  --      1.5490                 1.7964                 2.9133
 IR Inten    --    156.1398               107.6015                 7.8924

                     43                     44                     45
                      A                      A                      A
 Frequencies --   1522.4339              1535.0566              1550.2182
 Red. masses --      1.2396                 1.1266                 2.2110
 Frc consts  --      1.6929                 1.5641                 3.1305
 IR Inten    --     39.0389                10.6065                 4.3451

                     46                     47                     48
                      A                      A                      A
 Frequencies --   1647.4303              1668.8163              1853.0416
 Red. masses --      5.5482                 5.5876                11.1305
 Frc consts  --      8.8720                 9.1684                22.5182
 IR Inten    --      0.3949                 0.0410               299.2115

                     49                     50                     51
                      A                      A                      A
 Frequencies --   3076.6655              3123.7809              3179.3727
 Red. masses --      1.0580                 1.1088                 1.0855
 Frc consts  --      5.9008                 6.3748                 6.4647
 IR Inten    --     16.6797                14.9680                 4.7253

                     52                     53                     54
                      A                      A                      A
 Frequencies --   3183.0888              3191.8466              3200.8609
 Red. masses --      1.0875                 1.0907                 1.0943
 Frc consts  --      6.4921                 6.5467                 6.6059
 IR Inten    --      1.7140                12.3398                37.4061

                     55                     56                     57
                      A                      A                      A
 Frequencies --   3210.7683              3571.5495              3725.5455
 Red. masses --      1.0980                 1.0770                 1.0684
 Frc consts  --      6.6693                 8.0946                 8.7368
 IR Inten    --     17.1891                19.8623                45.0729

 - Thermochemistry -
 -------------------
 Temperature     0.001 Kelvin.  Pressure   1.00000 Atm.
 Atom     1 has atomic number  8 and mass  15.99491

 Molecular mass:   167.05824 amu.
 Principal axes and moments of inertia in atomic units:
                           1         2         3
     Eigenvalues --   626.941854833.709285027.11020
           X            1.00000  -0.00191  -0.00237
           Y            0.00206   0.99791   0.06465
           Z            0.00224  -0.06465   0.99791
 This molecule is an asymmetric top.
 Rotational symmetry number  1.
 Warning -- assumption of classical behavior for rotation
           may cause significant error
 Rotational temperatures (Kelvin)      0.13815     0.01792     0.01723
 Rotational constants (GHZ):           2.87864     0.37337     0.35900
 Zero-point vibrational energy     433465.1 (Joules/Mol)
                                  103.60066 (Kcal/Mol)
 Vibrational temperatures:      9.05    35.92    99.86   158.99   251.60
          (Kelvin)            276.69   339.21   377.19   460.26   479.30
                              598.86   654.70   786.47   832.72   889.90
                              915.16  1024.36  1098.64  1115.50  1129.72
                             1238.19  1247.75  1334.53  1392.11  1419.17
                             1434.12  1444.76  1467.37  1494.62  1523.44
                             1608.00  1614.89  1717.93  1746.69  1790.07
                             1802.78  1816.62  1955.94  1968.58  2024.29
                             2071.40  2162.12  2190.44  2208.60  2230.42
                             2370.28  2401.05  2666.11  4426.64  4494.42
                             4574.41  4579.75  4592.36  4605.32  4619.58
                             5138.66  5360.23

 Zero-point correction=                           0.165098 (Hartree/Particle)
 Thermal correction to Energy=                    0.165098
 Thermal correction to Enthalpy=                  0.165098
 Thermal correction to Gibbs Free Energy=         0.165098
 Sum of electronic and zero-point Energies=           -590.475990
 Sum of electronic and thermal Energies=              -590.475990
 Sum of electronic and thermal Enthalpies=            -590.475990
 Sum of electronic and thermal Free Energies=         -590.475990

                     E (Thermal)             CV                S
                      KCal/Mol        Cal/Mol-Kelvin    Cal/Mol-Kelvin
 Total                  103.601              5.962            -27.850
 Electronic               0.000              0.000              0.000
 Translational            0.000              2.981            -21.376
 Rotational               0.000              2.981             -6.474
 Vibrational            103.601              0.000              0.000

 Optimization completed.
    -- Stationary point found.
 Normal termination of Gaussian 16 at Mon Oct 14 00:23:39 2019.
