 Gaussian 16, Revision A.03,
 Gaussian 16:  ES64L-G16RevA.03 25-Dec-2016

 --------------------------------------------------------------
 #P opt freq b3lyp/6-31g(d) geom=connectivity temperature=0.001
 --------------------------------------------------------------

 -------------------
 Title Card Required
 -------------------
 Symbolic Z-matrix:
 Charge =  1 Multiplicity = 1

 SCF Done:  E(RB3LYP) =  -590.889664558     A.U. after   17 cycles
 SCF Done:  E(RB3LYP) =  -590.935363147     A.U. after   13 cycles
 SCF Done:  E(RB3LYP) =  -590.957852713     A.U. after   13 cycles
 SCF Done:  E(RB3LYP) =  -590.961020042     A.U. after   12 cycles
 SCF Done:  E(RB3LYP) =  -590.962551380     A.U. after   13 cycles
 SCF Done:  E(RB3LYP) =  -590.963192141     A.U. after   13 cycles
 SCF Done:  E(RB3LYP) =  -590.963312816     A.U. after   11 cycles
 SCF Done:  E(RB3LYP) =  -590.963363537     A.U. after   11 cycles
 SCF Done:  E(RB3LYP) =  -590.963375897     A.U. after   10 cycles
 SCF Done:  E(RB3LYP) =  -590.963379150     A.U. after    9 cycles
 SCF Done:  E(RB3LYP) =  -590.963382474     A.U. after    9 cycles
 SCF Done:  E(RB3LYP) =  -590.963384352     A.U. after    8 cycles
 SCF Done:  E(RB3LYP) =  -590.963382646     A.U. after    8 cycles
 SCF Done:  E(RB3LYP) =  -590.963383104     A.U. after    7 cycles
 SCF Done:  E(RB3LYP) =  -590.963383919     A.U. after    8 cycles
 SCF Done:  E(RB3LYP) =  -590.963383095     A.U. after    8 cycles
 Optimization completed.
    -- Stationary point found.
 Normal termination of Gaussian 16 at Mon Oct 14 00:23:27 2019.

 --------------------------------------------------------------------
 #P Geom=AllCheck Guess=TCheck SCRF=Check GenChk RB3LYP/6-31G(d) Freq
 --------------------------------------------------------------------

 Structure from the checkpoint file:  "12_p.chk"
 -------------------
 Title Card Required
 -------------------
 Charge =  1 Multiplicity = 1

                         Standard orientation:
 ---------------------------------------------------------------------
 Center     Atomic      Atomic             Coordinates (Angstroms)
 Number     Number       Type             X           Y           Z
 ---------------------------------------------------------------------
      1          8           0       -2.866995   -1.328345   -0.241713
      2          6           0       -2.241373   -0.346592   -0.053077
      3          7           0       -3.041081    1.041398    0.207169
      4          8           0       -4.406827    0.763622    0.098326
      5          8           0       -1.006051    0.009120    0.020550
      6          6           0        0.051570   -1.114627   -0.184666
      7          6           0        1.392917   -0.495396   -0.083922
      8          6           0        2.040838   -0.415040    1.158431
      9          6           0        3.303118    0.166305    1.251858
     10          6           0        3.924373    0.669566    0.105547
     11          6           0        3.286775    0.590132   -1.135617
     12          6           0        2.024537    0.009109   -1.231244
     13          1           0       -2.792243    1.384450    1.146483
     14          1           0       -4.880593    1.603065    0.270341
     15          1           0       -0.172506   -1.837248    0.600373
     16          1           0       -0.183772   -1.526183   -1.166442
     17          1           0        1.561841   -0.818731    2.047401
     18          1           0        3.806152    0.218913    2.212450
     19          1           0        4.911744    1.115931    0.178022
     20          1           0        3.777168    0.971279   -2.026004
     21          1           0        1.532955   -0.065368   -2.198450
     22          1           0       -2.730711    1.728202   -0.495531
 ---------------------------------------------------------------------

 SCF Done:  E(RB3LYP) =  -590.963383095     A.U. after    1 cycles

 The electronic state is 1-A.
 Alpha  occ. eigenvalues --  -19.41655 -19.39462 -19.35488 -14.70026 -10.55505
 Alpha  occ. eigenvalues --  -10.41063 -10.32625 -10.31561 -10.31560 -10.30774
 Alpha  occ. eigenvalues --  -10.30546 -10.30539  -1.34137  -1.30119  -1.23993
 Alpha  occ. eigenvalues --   -1.09337  -0.98321  -0.92264  -0.86463  -0.84624
 Alpha  occ. eigenvalues --   -0.81720  -0.80551  -0.77125  -0.72801  -0.72246
 Alpha  occ. eigenvalues --   -0.70845  -0.66124  -0.66090  -0.63726  -0.60975
 Alpha  occ. eigenvalues --   -0.59720  -0.58470  -0.56302  -0.54781  -0.53814
 Alpha  occ. eigenvalues --   -0.53635  -0.52891  -0.50210  -0.49892  -0.48213
 Alpha  occ. eigenvalues --   -0.46741  -0.46029  -0.37383  -0.36894
 Alpha virt. eigenvalues --   -0.17613  -0.16709  -0.15853  -0.13832  -0.11784
 Alpha virt. eigenvalues --   -0.09381  -0.08570  -0.05985  -0.03104  -0.02132
 Alpha virt. eigenvalues --   -0.00523   0.00658   0.04781   0.04826   0.05376

 Mulliken charges:
               1
     1  O   -0.325627
     2  C    0.774501
     3  N   -0.427461
     4  O   -0.408528
     5  O   -0.442162
     6  C   -0.191150
     7  C    0.144405
     8  C   -0.165731
     9  C   -0.126268
    10  C   -0.114480
    11  C   -0.126340
    12  C   -0.165802
    13  H    0.431427
    14  H    0.461139
    15  H    0.219570
    16  H    0.220050
    17  H    0.149740
    18  H    0.169257
    19  H    0.172922
    20  H    0.169288
    21  H    0.149839
    22  H    0.431410
 Sum of Mulliken charges =   1.00000

 Dipole moment (field-independent basis, Debye):
    X=             -6.7710    Y=              5.5050    Z=              1.1542  Tot=              8.8025
 Quadrupole moment (field-independent basis, Debye-Ang):
   XX=            -17.9293   YY=            -56.5624   ZZ=            -57.4758
   XY=            -20.7343   XZ=             -4.3373   YZ=              0.2580

  Exact polarizability: 141.816  18.670  66.985   3.466  -4.007  88.864
 Approx polarizability: 189.611  42.260 108.110   7.936  -7.470 149.715

                      1                      2                      3
                      A                      A                      A
 Frequencies --      9.7193                26.1596                44.1968
 Red. masses --      5.4384                 5.8088                 3.1484
 Frc consts  --      0.0003                 0.0023                 0.0036
 IR Inten    --     14.6098                 6.6174                19.0691

                      4                      5                      6
                      A                      A                      A
 Frequencies --     62.1421               147.2612               159.6505
 Red. masses --      5.1812                 4.0539                 6.5792
 Frc consts  --      0.0118                 0.0518                 0.0988
 IR Inten    --      5.7695                26.9553                13.7251

                      7                      8                      9
                      A                      A                      A
 Frequencies --    230.7922               251.6564               286.1052
 Red. masses --      5.7111                 1.0969                 8.0027
 Frc consts  --      0.1792                 0.0409                 0.3860
 IR Inten    --     14.8021               121.8990                 2.3782

                     10                     11                     12
                      A                      A                      A
 Frequencies --    334.7455               381.0792               415.0445
 Red. masses --      2.1650                 4.9383                 2.9129
 Frc consts  --      0.1429                 0.4225                 0.2956
 IR Inten    --      1.6405                38.6805                 0.0242

                     13                     14                     15
                      A                      A                      A
 Frequencies --    502.7539               559.7587               593.3249
 Red. masses --      3.8896                 5.6706                 4.9463
 Frc consts  --      0.5793                 1.0468                 1.0259
 IR Inten    --     27.8462                61.7569                22.8332

                     16                     17                     18
                      A                      A                      A
 Frequencies --    604.8306               633.2647               697.7103
 Red. masses --      3.4700                 6.3166                 6.0163
 Frc consts  --      0.7479                 1.4925                 1.7256
 IR Inten    --      7.1319                 0.0263               113.6564

                     19                     20                     21
                      A                      A                      A
 Frequencies --    713.5440               776.2044               793.1298
 Red. masses --      1.8979                 2.9766                 3.3662
 Frc consts  --      0.5693                 1.0566                 1.2476
 IR Inten    --     84.7332               183.1299                92.0771

                     22                     23                     24
                      A                      A                      A
 Frequencies --    860.3424               879.1336               949.6517
 Red. masses --      1.2514                 4.4384                 1.4060
 Frc consts  --      0.5457                 2.0211                 0.7471
 IR Inten    --      0.0100                63.6029                 1.7823

                     25                     26                     27
                      A                      A                      A
 Frequencies --    966.6792               974.5548               980.8637
 Red. masses --      1.6078                 1.8121                 1.3582
 Frc consts  --      0.8852                 1.0140                 0.7699
 IR Inten    --      0.5130                11.5157                 0.0135

                     28                     29                     30
                      A                      A                      A
 Frequencies --   1018.6743              1021.8373              1055.9089
 Red. masses --      4.8018                 1.3898                 2.2090
 Frc consts  --      2.9358                 0.8550                 1.4511
 IR Inten    --      3.3336                 0.4753                 0.0111

                     31                     32                     33
                      A                      A                      A
 Frequencies --   1069.3240              1124.8453              1202.0799
 Red. masses --      9.5501                 1.5187                 1.1058
 Frc consts  --      6.4339                 1.1322                 0.9415
 IR Inten    --     18.3143                 2.2277                 0.1757

                     34                     35                     36
                      A                      A                      A
 Frequencies --   1209.6216              1221.5753              1231.3198
 Red. masses --      2.2600                 1.7074                 1.1013
 Frc consts  --      1.9483                 1.5011                 0.9838
 IR Inten    --    451.3834               248.2615                 5.8853

                     37                     38                     39
                      A                      A                      A
 Frequencies --   1256.8075              1295.1659              1330.6504
 Red. masses --      2.6360                 1.0727                 1.0884
 Frc consts  --      2.4532                 1.0602                 1.1354
 IR Inten    --     10.8539                 3.6966                77.6563

                     40                     41                     42
                      A                      A                      A
 Frequencies --   1370.1560              1372.1715              1393.8430
 Red. masses --      4.1502                 1.4222                 1.3622
 Frc consts  --      4.5905                 1.5777                 1.5592
 IR Inten    --      2.6014                 2.4886                76.1230

                     43                     44                     45
                      A                      A                      A
 Frequencies --   1472.9805              1505.4312              1515.2080
 Red. masses --      1.2751                 2.2209                 1.1360
 Frc consts  --      1.6300                 2.9656                 1.5366
 IR Inten    --     98.6797                11.3154                 2.4572

                     46                     47                     48
                      A                      A                      A
 Frequencies --   1547.0195              1643.3150              1657.0989
 Red. masses --      2.2551                 5.3592                 1.0742
 Frc consts  --      3.1798                 8.5268                 1.7379
 IR Inten    --      0.0679                 0.5962                40.2202

                     49                     50                     51
                      A                      A                      A
 Frequencies --   1660.4857              2023.5026              3126.3234
 Red. masses --      5.4280                12.1329                 1.0577
 Frc consts  --      8.8178                29.2699                 6.0909
 IR Inten    --     21.2753               468.7801                 4.3285

                     52                     53                     54
                      A                      A                      A
 Frequencies --   3187.1389              3187.6955              3196.3232
 Red. masses --      1.0905                 1.0894                 1.1136
 Frc consts  --      6.5262                 6.5219                 6.7033
 IR Inten    --      5.1106                 4.3268                 2.4193

                     55                     56                     57
                      A                      A                      A
 Frequencies --   3206.8275              3217.7723              3225.9562
 Red. masses --      1.0892                 1.0937                 1.0979
 Frc consts  --      6.5998                 6.6718                 6.7318
 IR Inten    --      1.0207                 8.5369                 4.7914

                     58                     59                     60
                      A                      A                      A
 Frequencies --   3352.7073              3433.9662              3653.9787
 Red. masses --      1.0481                 1.1023                 1.0685
 Frc consts  --      6.9415                 7.6585                 8.4052
 IR Inten    --     51.0509                69.7407               131.8287

 - Thermochemistry -
 -------------------
 Temperature     0.001 Kelvin.  Pressure   1.00000 Atm.
 Atom     1 has atomic number  8 and mass  15.99491

 Molecular mass:   168.06607 amu.
 Principal axes and moments of inertia in atomic units:
                           1         2         3
     Eigenvalues --   687.892455020.153855048.16962
           X            0.99998  -0.00593  -0.00056
           Y            0.00582   0.99253  -0.12184
           Z            0.00128   0.12184   0.99255
 This molecule is an asymmetric top.
 Rotational symmetry number  1.
 Warning -- assumption of classical behavior for rotation
           may cause significant error
 Rotational temperatures (Kelvin)      0.12591     0.01725     0.01716
 Rotational constants (GHZ):           2.62358     0.35950     0.35750
 Zero-point vibrational energy     465479.0 (Joules/Mol)
                                  111.25215 (Kcal/Mol)
 Vibrational temperatures:     13.98    37.64    63.59    89.41   211.88
          (Kelvin)            229.70   332.06   362.08   411.64   481.62
                              548.29   597.16   723.35   805.37   853.66
                              870.22   911.13  1003.85  1026.63  1116.78
                             1141.14  1237.84  1264.88  1366.34  1390.84
                             1402.17  1411.24  1465.65  1470.20  1519.22
                             1538.52  1618.40  1729.52  1740.38  1757.57
                             1771.59  1808.27  1863.45  1914.51  1971.35
                             1974.25  2005.43  2119.29  2165.98  2180.05
                             2225.82  2364.36  2384.20  2389.07  2911.37
                             4498.08  4585.58  4586.38  4598.80  4613.91
                             4629.66  4641.43  4823.80  4940.71  5257.26

 Zero-point correction=                           0.177292 (Hartree/Particle)
 Thermal correction to Energy=                    0.177292
 Thermal correction to Enthalpy=                  0.177292
 Thermal correction to Gibbs Free Energy=         0.177292
 Sum of electronic and zero-point Energies=           -590.786092
 Sum of electronic and thermal Energies=              -590.786092
 Sum of electronic and thermal Enthalpies=            -590.786091
 Sum of electronic and thermal Free Energies=         -590.786091

                     E (Thermal)             CV                S
                      KCal/Mol        Cal/Mol-Kelvin    Cal/Mol-Kelvin
 Total                  111.252              5.962            -27.698
 Electronic               0.000              0.000              0.000
 Translational            0.000              2.981            -21.358
 Rotational               0.000              2.981             -6.340
 Vibrational            111.252              0.000              0.000

                           ! Non-Optimized Parameters !
 Normal termination of Gaussian 16 at Mon Oct 14 00:24:01 2019.
