 Gaussian 16, Revision A.03,
 Gaussian 16:  ES64L-G16RevA.03 25-Dec-2016

 --------------------------------------------------------------
 #P opt freq b3lyp/6-31g(d) geom=connectivity temperature=0.001
 --------------------------------------------------------------

 -------------------
 Title Card Required
 -------------------
 Symbolic Z-matrix:
 Charge =  0 Multiplicity = 1

 SCF Done:  E(RB3LYP) =  -476.086503931     A.U. after   15 cycles
 SCF Done:  E(RB3LYP) =  -476.098392348     A.U. after   13 cycles
 SCF Done:  E(RB3LYP) =  -476.100545332     A.U. after   12 cycles
 SCF Done:  E(RB3LYP) =  -476.101011226     A.U. after   12 cycles
 SCF Done:  E(RB3LYP) =  -476.101780476     A.U. after   12 cycles
 SCF Done:  E(RB3LYP) =  -476.103611581     A.U. after   14 cycles
 SCF Done:  E(RB3LYP) =  -476.105168845     A.U. after   12 cycles
 SCF Done:  E(RB3LYP) =  -476.107169138     A.U. after   13 cycles
 SCF Done:  E(RB3LYP) =  -476.106738572     A.U. after   13 cycles
 SCF Done:  E(RB3LYP) =  -476.108056384     A.U. after   12 cycles
 SCF Done:  E(RB3LYP) =  -476.108118939     A.U. after   11 cycles
 SCF Done:  E(RB3LYP) =  -476.108127979     A.U. after    9 cycles
 SCF Done:  E(RB3LYP) =  -476.108129885     A.U. after    8 cycles
 SCF Done:  E(RB3LYP) =  -476.108130547     A.U. after    8 cycles
 Optimization completed.
    -- Stationary point found.
 Normal termination of Gaussian 16 at Mon Oct 14 00:24:29 2019.

 --------------------------------------------------------------------
 #P Geom=AllCheck Guess=TCheck SCRF=Check GenChk RB3LYP/6-31G(d) Freq
 --------------------------------------------------------------------

 Structure from the checkpoint file:  "13.chk"
 -------------------
 Title Card Required
 -------------------
 Charge =  0 Multiplicity = 1

                         Standard orientation:
 ---------------------------------------------------------------------
 Center     Atomic      Atomic             Coordinates (Angstroms)
 Number     Number       Type             X           Y           Z
 ---------------------------------------------------------------------
      1          8           0        1.781624    1.394673    0.370125
      2          6           0        1.249890    0.311902    0.113918
      3          7           0        2.044081   -0.793199   -0.107564
      4          8           0        3.413581   -0.505691   -0.234008
      5          6           0       -0.221516    0.094607    0.061715
      6          6           0       -1.040536    1.215702   -0.129125
      7          6           0       -2.423183    1.066056   -0.202650
      8          6           0       -2.998187   -0.201329   -0.077191
      9          6           0       -2.187182   -1.319509    0.129785
     10          6           0       -0.802614   -1.174571    0.201928
     11          1           0        1.768753   -1.448051   -0.831123
     12          1           0        3.417438    0.462447   -0.040398
     13          1           0       -0.574068    2.191462   -0.216548
     14          1           0       -3.053725    1.937413   -0.355674
     15          1           0       -4.077320   -0.316502   -0.131554
     16          1           0       -2.633572   -2.302971    0.247165
     17          1           0       -0.177744   -2.040403    0.401861
 ---------------------------------------------------------------------

 SCF Done:  E(RB3LYP) =  -476.108130547     A.U. after    1 cycles

 The electronic state is 1-A.
 Alpha  occ. eigenvalues --  -19.18453 -19.13704 -14.41459 -10.30248 -10.21621
 Alpha  occ. eigenvalues --  -10.21196 -10.20898 -10.20747 -10.20601 -10.20540
 Alpha  occ. eigenvalues --   -1.10175  -1.02707  -0.87798  -0.85352  -0.76757
 Alpha  occ. eigenvalues --   -0.76109  -0.65176  -0.62358  -0.60613  -0.55494
 Alpha  occ. eigenvalues --   -0.52465  -0.50155  -0.46856  -0.45684  -0.44206
 Alpha  occ. eigenvalues --   -0.43645  -0.42229  -0.39603  -0.38043  -0.36736
 Alpha  occ. eigenvalues --   -0.35907  -0.34873  -0.28408  -0.26952  -0.26510
 Alpha  occ. eigenvalues --   -0.23782
 Alpha virt. eigenvalues --   -0.04989  -0.01692   0.03921   0.07724   0.09127
 Alpha virt. eigenvalues --    0.09753   0.13479   0.14817   0.15770   0.16218
 Alpha virt. eigenvalues --    0.17772   0.18416   0.25151   0.27957   0.28969

 Mulliken charges:
               1
     1  O   -0.532303
     2  C    0.520462
     3  N   -0.336831
     4  O   -0.517336
     5  C    0.078072
     6  C   -0.154381
     7  C   -0.136241
     8  C   -0.118152
     9  C   -0.134122
    10  C   -0.180785
    11  H    0.346697
    12  H    0.426210
    13  H    0.166680
    14  H    0.142479
    15  H    0.140763
    16  H    0.140697
    17  H    0.148093
 Sum of Mulliken charges =  -0.00000

 Dipole moment (field-independent basis, Debye):
    X=             -3.1004    Y=             -1.4435    Z=             -1.3350  Tot=              3.6713
 Quadrupole moment (field-independent basis, Debye-Ang):
   XX=            -57.3280   YY=            -54.0416   ZZ=            -58.8517
   XY=             -0.1404   XZ=             -1.5498   YZ=             -0.4142

  Exact polarizability: 124.999  -0.067  90.722   2.266  -2.065  33.425
 Approx polarizability: 185.656   0.430 167.349   5.790  -3.012  51.348

                      1                      2                      3
                      A                      A                      A
 Frequencies --     65.3789               120.6554               155.4029
 Red. masses --      5.8541                 4.7864                 5.4759
 Frc consts  --      0.0147                 0.0411                 0.0779
 IR Inten    --      1.3789                 2.3769                 0.9344

                      4                      5                      6
                      A                      A                      A
 Frequencies --    253.5510               337.5231               351.2093
 Red. masses --      5.1022                 6.8567                 5.5726
 Frc consts  --      0.1933                 0.4602                 0.4050
 IR Inten    --      4.9343                29.8311                17.9733

                      7                      8                      9
                      A                      A                      A
 Frequencies --    413.7368               418.2055               454.2977
 Red. masses --      2.2486                 2.5015                 1.8411
 Frc consts  --      0.2268                 0.2578                 0.2239
 IR Inten    --     38.5707                22.3852                62.7331

                     10                     11                     12
                      A                      A                      A
 Frequencies --    505.1488               555.5514               632.2481
 Red. masses --      3.3949                 1.5188                 6.3052
 Frc consts  --      0.5104                 0.2762                 1.4850
 IR Inten    --     11.6292               120.9099                 0.1821

                     13                     14                     15
                      A                      A                      A
 Frequencies --    696.2837               704.9700               723.6475
 Red. masses --      6.0415                 3.0781                 1.9316
 Frc consts  --      1.7257                 0.9013                 0.5960
 IR Inten    --     14.0450                 6.7704                89.6859

                     16                     17                     18
                      A                      A                      A
 Frequencies --    798.9131               868.5381               920.5006
 Red. masses --      2.3955                 1.2475                 4.9125
 Frc consts  --      0.9008                 0.5545                 2.4525
 IR Inten    --     10.0591                 0.7226                20.7492

                     19                     20                     21
                      A                      A                      A
 Frequencies --    947.2061               981.6915              1007.5517
 Red. masses --      1.3866                 1.3505                 1.2816
 Frc consts  --      0.7330                 0.7668                 0.7665
 IR Inten    --      3.2285                 0.7636                 0.3805

                     22                     23                     24
                      A                      A                      A
 Frequencies --   1018.8805              1039.3470              1060.5485
 Red. masses --      6.0580                 4.9367                 2.3151
 Frc consts  --      3.7053                 3.1420                 1.5342
 IR Inten    --      0.1067                85.9028                 9.3780

                     25                     26                     27
                      A                      A                      A
 Frequencies --   1113.0823              1165.4074              1195.3918
 Red. masses --      1.5728                 3.4116                 1.1053
 Frc consts  --      1.1481                 2.7300                 0.9306
 IR Inten    --      3.9235                13.0669                 0.1071

                     28                     29                     30
                      A                      A                      A
 Frequencies --   1212.3315              1293.5476              1349.7563
 Red. masses --      1.1626                 1.9072                 2.0022
 Frc consts  --      1.0068                 1.8802                 2.1491
 IR Inten    --      2.9251                11.7457                 0.4824

                     31                     32                     33
                      A                      A                      A
 Frequencies --   1368.0509              1421.9055              1494.6260
 Red. masses --      2.5837                 1.8866                 2.1967
 Frc consts  --      2.8490                 2.2474                 2.8912
 IR Inten    --      2.3456               309.1957                15.6784

                     34                     35                     36
                      A                      A                      A
 Frequencies --   1541.8649              1573.1703              1639.2003
 Red. masses --      2.1173                 1.3894                 5.3692
 Frc consts  --      2.9657                 2.0259                 8.5001
 IR Inten    --      2.1853                73.0852                 3.9855

                     37                     38                     39
                      A                      A                      A
 Frequencies --   1662.3134              1741.3853              3187.4693
 Red. masses --      5.4721                 7.8932                 1.0854
 Frc consts  --      8.9090                14.1024                 6.4975
 IR Inten    --      5.1415               148.7404                 0.1056

                     40                     41                     42
                      A                      A                      A
 Frequencies --   3196.3163              3204.8357              3213.5033
 Red. masses --      1.0885                 1.0925                 1.0966
 Frc consts  --      6.5520                 6.6111                 6.6720
 IR Inten    --      5.4750                21.3894                16.2052

                     43                     44                     45
                      A                      A                      A
 Frequencies --   3226.8229              3480.1296              3581.9945
 Red. masses --      1.0937                 1.0637                 1.0787
 Frc consts  --      6.7094                 7.5902                 8.1548
 IR Inten    --      3.9646                47.9027                37.1249

 - Thermochemistry -
 -------------------
 Temperature     0.001 Kelvin.  Pressure   1.00000 Atm.
 Atom     1 has atomic number  8 and mass  15.99491

 Molecular mass:   137.04768 amu.
 Principal axes and moments of inertia in atomic units:
                           1         2         3
     Eigenvalues --   504.114002234.289162695.68683
           X            1.00000  -0.00077  -0.00088
           Y            0.00076   0.99995  -0.01008
           Z            0.00089   0.01008   0.99995
 This molecule is an asymmetric top.
 Rotational symmetry number  1.
 Warning -- assumption of classical behavior for rotation
           may cause significant error
 Rotational temperatures (Kelvin)      0.17181     0.03877     0.03213
 Rotational constants (GHZ):           3.58003     0.80775     0.66949
 Zero-point vibrational energy     346283.6 (Joules/Mol)
                                   82.76376 (Kcal/Mol)
 Vibrational temperatures:     94.07   173.60   223.59   364.80   485.62
          (Kelvin)            505.31   595.27   601.70   653.63   726.80
                              799.31   909.66  1001.80  1014.29  1041.17
                             1149.46  1249.63  1324.40  1362.82  1412.44
                             1449.64  1465.94  1495.39  1525.89  1601.48
                             1676.76  1719.90  1744.27  1861.13  1942.00
                             1968.32  2045.80  2150.43  2218.40  2263.44
                             2358.44  2391.70  2505.47  4586.06  4598.79
                             4611.04  4623.51  4642.68  5007.13  5153.69

 Zero-point correction=                           0.131892 (Hartree/Particle)
 Thermal correction to Energy=                    0.131892
 Thermal correction to Enthalpy=                  0.131892
 Thermal correction to Gibbs Free Energy=         0.131893
 Sum of electronic and zero-point Energies=           -475.976238
 Sum of electronic and thermal Energies=              -475.976238
 Sum of electronic and thermal Enthalpies=            -475.976238
 Sum of electronic and thermal Free Energies=         -475.976238

                     E (Thermal)             CV                S
                      KCal/Mol        Cal/Mol-Kelvin    Cal/Mol-Kelvin
 Total                   82.764              5.962            -30.043
 Electronic               0.000              0.000              0.000
 Translational            0.000              2.981            -21.966
 Rotational               0.000              2.981             -8.077
 Vibrational             82.764              0.000              0.000

                           ! Non-Optimized Parameters !
 Normal termination of Gaussian 16 at Mon Oct 14 00:24:52 2019.
