 Gaussian 16, Revision A.03,
 Gaussian 16:  ES64L-G16RevA.03 25-Dec-2016

 --------------------------------------------------------------
 #P opt freq b3lyp/6-31g(d) geom=connectivity temperature=0.001
 --------------------------------------------------------------

 -------------------
 Title Card Required
 -------------------
 Symbolic Z-matrix:
 Charge =  1 Multiplicity = 1

 SCF Done:  E(RB3LYP) =  -476.382573065     A.U. after   15 cycles
 SCF Done:  E(RB3LYP) =  -476.417447287     A.U. after   13 cycles
 SCF Done:  E(RB3LYP) =  -476.430852273     A.U. after   14 cycles
 SCF Done:  E(RB3LYP) =  -476.434972850     A.U. after   13 cycles
 SCF Done:  E(RB3LYP) =  -476.438615097     A.U. after   14 cycles
 SCF Done:  E(RB3LYP) =  -476.439673718     A.U. after   13 cycles
 SCF Done:  E(RB3LYP) =  -476.440098500     A.U. after   12 cycles
 SCF Done:  E(RB3LYP) =  -476.440454390     A.U. after   12 cycles
 SCF Done:  E(RB3LYP) =  -476.440588905     A.U. after   11 cycles
 SCF Done:  E(RB3LYP) =  -476.440729299     A.U. after   12 cycles
 SCF Done:  E(RB3LYP) =  -476.440890082     A.U. after   11 cycles
 SCF Done:  E(RB3LYP) =  -476.440934205     A.U. after   11 cycles
 SCF Done:  E(RB3LYP) =  -476.440950665     A.U. after   10 cycles
 SCF Done:  E(RB3LYP) =  -476.440961409     A.U. after   10 cycles
 SCF Done:  E(RB3LYP) =  -476.440963839     A.U. after    8 cycles
 SCF Done:  E(RB3LYP) =  -476.440964511     A.U. after    8 cycles
 SCF Done:  E(RB3LYP) =  -476.440964603     A.U. after    7 cycles
 SCF Done:  E(RB3LYP) =  -476.440964641     A.U. after    7 cycles
 Optimization completed.
    -- Stationary point found.
 Normal termination of Gaussian 16 at Mon Oct 14 00:25:56 2019.

 --------------------------------------------------------------------
 #P Geom=AllCheck Guess=TCheck SCRF=Check GenChk RB3LYP/6-31G(d) Freq
 --------------------------------------------------------------------

 Structure from the checkpoint file:  "13_p.chk"
 -------------------
 Title Card Required
 -------------------
 Charge =  1 Multiplicity = 1

                         Standard orientation:
 ---------------------------------------------------------------------
 Center     Atomic      Atomic             Coordinates (Angstroms)
 Number     Number       Type             X           Y           Z
 ---------------------------------------------------------------------
      1          8           0       -1.746397    1.478105    0.000459
      2          6           0       -1.123436    0.459621    0.000175
      3          7           0       -2.123793   -0.840758   -0.000266
      4          8           0       -3.452890   -0.421923   -0.000273
      5          6           0        0.281448    0.151628    0.000106
      6          6           0        1.167378    1.254481   -0.000152
      7          6           0        2.536828    1.030641   -0.000271
      8          6           0        3.030780   -0.279021   -0.000111
      9          6           0        2.158137   -1.375459    0.000175
     10          6           0        0.786469   -1.167670    0.000263
     11          1           0       -1.977685   -1.420426   -0.837424
     12          1           0       -3.382716    0.567867    0.000043
     13          1           0        0.765355    2.262148   -0.000270
     14          1           0        3.221200    1.872551   -0.000482
     15          1           0        4.103157   -0.449498   -0.000204
     16          1           0        2.552346   -2.386138    0.000347
     17          1           0        0.131327   -2.035249    0.000553
     18          1           0       -1.977751   -1.420733    0.836692
 ---------------------------------------------------------------------

 SCF Done:  E(RB3LYP) =  -476.440964641     A.U. after    1 cycles

 The electronic state is 1-A.
 Alpha  occ. eigenvalues --  -19.39675 -19.37803 -14.69021 -10.52713 -10.39711
 Alpha  occ. eigenvalues --  -10.38631 -10.37476 -10.36775 -10.36265 -10.35788
 Alpha  occ. eigenvalues --   -1.33059  -1.27400  -1.08622  -1.03635  -0.94843
 Alpha  occ. eigenvalues --   -0.92447  -0.84310  -0.79810  -0.79672  -0.77130
 Alpha  occ. eigenvalues --   -0.74823  -0.72579  -0.67513  -0.65239  -0.62802
 Alpha  occ. eigenvalues --   -0.62095  -0.60760  -0.59708  -0.58136  -0.53814
 Alpha  occ. eigenvalues --   -0.53153  -0.51781  -0.51134  -0.51033  -0.43544
 Alpha  occ. eigenvalues --   -0.42614
 Alpha virt. eigenvalues --   -0.25662  -0.17286  -0.15249  -0.13645  -0.12741
 Alpha virt. eigenvalues --   -0.09652  -0.07896  -0.05264  -0.02472  -0.00639
 Alpha virt. eigenvalues --   -0.00450   0.01022   0.03416   0.04786   0.08295

 Mulliken charges:
               1
     1  O   -0.387183
     2  C    0.477728
     3  N   -0.419110
     4  O   -0.441908
     5  C    0.104968
     6  C   -0.122115
     7  C   -0.127048
     8  C   -0.093558
     9  C   -0.122732
    10  C   -0.172955
    11  H    0.432021
    12  H    0.474165
    13  H    0.212511
    14  H    0.203419
    15  H    0.205159
    16  H    0.198158
    17  H    0.146469
    18  H    0.432011
 Sum of Mulliken charges =   1.00000

 Dipole moment (field-independent basis, Debye):
    X=             -0.4955    Y=             -2.9919    Z=             -0.0009  Tot=              3.0327
 Quadrupole moment (field-independent basis, Debye-Ang):
   XX=            -28.7914   YY=            -43.1679   ZZ=            -55.4615
   XY=              4.0474   XZ=             -0.0003   YZ=             -0.0019

  Exact polarizability: 131.922  -5.986  89.564  -0.005  -0.004  32.865
 Approx polarizability: 212.080 -21.968 163.009  -0.014  -0.005  49.948

                      1                      2                      3
                      A                      A                      A
 Frequencies --     55.7398                93.6861               152.8944
 Red. masses --      6.2789                 2.9710                 4.4203
 Frc consts  --      0.0115                 0.0154                 0.0609
 IR Inten    --      0.0542                27.1947                10.9767

                      4                      5                      6
                      A                      A                      A
 Frequencies --    158.9292               308.3222               355.5024
 Red. masses --      5.2427                 5.8847                 6.0476
 Frc consts  --      0.0780                 0.3296                 0.4503
 IR Inten    --      5.3442                 2.1254                24.0665

                      7                      8                      9
                      A                      A                      A
 Frequencies --    397.8252               409.1615               447.2588
 Red. masses --      2.7719                 2.7107                 7.0482
 Frc consts  --      0.2585                 0.2674                 0.8307
 IR Inten    --      4.5859                15.4942                 0.6689

                     10                     11                     12
                      A                      A                      A
 Frequencies --    461.0398               592.0782               607.7763
 Red. masses --      1.1951                 2.8205                 6.2454
 Frc consts  --      0.1497                 0.5825                 1.3593
 IR Inten    --     82.9421                11.1490                86.3622

                     13                     14                     15
                      A                      A                      A
 Frequencies --    630.4082               676.9942               680.3426
 Red. masses --      6.5491                 7.2651                 1.9934
 Frc consts  --      1.5335                 1.9618                 0.5436
 IR Inten    --     24.8712                41.6166                28.8002

                     16                     17                     18
                      A                      A                      A
 Frequencies --    770.6939               843.5923               886.7307
 Red. masses --      1.5929                 1.2742                 7.0729
 Frc consts  --      0.5575                 0.5343                 3.2766
 IR Inten    --     43.1376                 2.3579                46.8673

                     19                     20                     21
                      A                      A                      A
 Frequencies --    942.9557               960.5869              1000.1199
 Red. masses --      1.5666                 1.4402                 1.3645
 Frc consts  --      0.8207                 0.7829                 0.8041
 IR Inten    --     11.4317                 2.1642                 0.1888

                     22                     23                     24
                      A                      A                      A
 Frequencies --   1011.7265              1038.8808              1050.9538
 Red. masses --      5.8407                 1.3533                 2.2513
 Frc consts  --      3.5224                 0.8606                 1.4651
 IR Inten    --      7.5126                 0.2999                 0.8630

                     25                     26                     27
                      A                      A                      A
 Frequencies --   1067.9943              1132.9522              1210.1807
 Red. masses --     10.0828                 1.5905                 1.0967
 Frc consts  --      6.7759                 1.2029                 0.9463
 IR Inten    --     26.6393                 2.3352                 1.1180

                     28                     29                     30
                      A                      A                      A
 Frequencies --   1223.1934              1262.5869              1311.8329
 Red. masses --      1.1938                 3.3471                 1.0808
 Frc consts  --      1.0524                 3.1437                 1.0959
 IR Inten    --     46.2370                59.4972                 8.5339

                     31                     32                     33
                      A                      A                      A
 Frequencies --   1317.2957              1361.5388              1389.4936
 Red. masses --      1.2426                 1.6971                 3.4655
 Frc consts  --      1.2705                 1.8536                 3.9421
 IR Inten    --    317.4829                20.2689                14.4830

                     34                     35                     36
                      A                      A                      A
 Frequencies --   1493.7818              1534.2491              1542.0314
 Red. masses --      2.2532                 1.8859                 1.2759
 Frc consts  --      2.9623                 2.6155                 1.7875
 IR Inten    --     42.5397                40.2395               224.7321

                     37                     38                     39
                      A                      A                      A
 Frequencies --   1621.1492              1647.5294              1672.0404
 Red. masses --      4.5359                 4.3137                 1.0999
 Frc consts  --      7.0236                 6.8986                 1.8118
 IR Inten    --     18.2688                76.7274                19.2534

                     40                     41                     42
                      A                      A                      A
 Frequencies --   1902.9387              3187.2927              3218.1535
 Red. masses --     10.3171                 1.0894                 1.0892
 Frc consts  --     22.0119                 6.5206                 6.6464
 IR Inten    --    345.7780                 9.8250                 0.1886

                     43                     44                     45
                      A                      A                      A
 Frequencies --   3227.6199              3233.8451              3239.1607
 Red. masses --      1.0910                 1.0952                 1.0979
 Frc consts  --      6.6961                 6.7481                 6.7869
 IR Inten    --      0.7810                 0.2787                 1.0180

                     46                     47                     48
                      A                      A                      A
 Frequencies --   3378.5951              3432.0004              3452.6831
 Red. masses --      1.0496                 1.0657                 1.1009
 Frc consts  --      7.0590                 7.3959                 7.7327
 IR Inten    --     56.8421               124.7518                77.5955

 - Thermochemistry -
 -------------------
 Temperature     0.001 Kelvin.  Pressure   1.00000 Atm.
 Atom     1 has atomic number  8 and mass  15.99491

 Molecular mass:   138.05550 amu.
 Principal axes and moments of inertia in atomic units:
                           1         2         3
     Eigenvalues --   523.733812289.843922803.49085
           X            0.99998   0.00637  -0.00000
           Y           -0.00637   0.99998  -0.00002
           Z            0.00000   0.00002   1.00000
 This molecule is an asymmetric top.
 Rotational symmetry number  1.
 Warning -- assumption of classical behavior for rotation
           may cause significant error
 Rotational temperatures (Kelvin)      0.16538     0.03783     0.03090
 Rotational constants (GHZ):           3.44591     0.78815     0.64375
 Zero-point vibrational energy     380378.6 (Joules/Mol)
                                   90.91267 (Kcal/Mol)
 Vibrational temperatures:     80.20   134.79   219.98   228.66   443.61
          (Kelvin)            511.49   572.38   588.69   643.51   663.33
                              851.87   874.45   907.02   974.04   978.86
                             1108.86  1213.74  1275.81  1356.70  1382.07
                             1438.95  1455.65  1494.72  1512.09  1536.61
                             1630.07  1741.18  1759.90  1816.58  1887.43
                             1895.29  1958.95  1999.17  2149.22  2207.44
                             2218.64  2332.47  2370.43  2405.69  2737.90
                             4585.80  4630.21  4643.83  4652.78  4660.43
                             4861.04  4937.88  4967.64

 Zero-point correction=                           0.144879 (Hartree/Particle)
 Thermal correction to Energy=                    0.144879
 Thermal correction to Enthalpy=                  0.144879
 Thermal correction to Gibbs Free Energy=         0.144879
 Sum of electronic and zero-point Energies=           -476.296086
 Sum of electronic and thermal Energies=              -476.296086
 Sum of electronic and thermal Enthalpies=            -476.296086
 Sum of electronic and thermal Free Energies=         -476.296086

                     E (Thermal)             CV                S
                      KCal/Mol        Cal/Mol-Kelvin    Cal/Mol-Kelvin
 Total                   90.913              5.962            -29.920
 Electronic               0.000              0.000              0.000
 Translational            0.000              2.981            -21.944
 Rotational               0.000              2.981             -7.976
 Vibrational             90.913              0.000              0.000

 Optimization completed.
    -- Stationary point found.
 Normal termination of Gaussian 16 at Mon Oct 14 00:26:21 2019.
