 Gaussian 16, Revision A.03,
 Gaussian 16:  ES64L-G16RevA.03 25-Dec-2016

 --------------------------------------------------------------
 #P opt freq b3lyp/6-31g(d) geom=connectivity temperature=0.001
 --------------------------------------------------------------

 -------------------
 Title Card Required
 -------------------
 Symbolic Z-matrix:
 Charge =  0 Multiplicity = 1

 SCF Done:  E(RB3LYP) =  -420.791883261     A.U. after   15 cycles
 SCF Done:  E(RB3LYP) =  -420.800135184     A.U. after   14 cycles
 SCF Done:  E(RB3LYP) =  -420.800703541     A.U. after   13 cycles
 SCF Done:  E(RB3LYP) =  -420.801975575     A.U. after   13 cycles
 SCF Done:  E(RB3LYP) =  -420.804587887     A.U. after   13 cycles
 SCF Done:  E(RB3LYP) =  -420.818522007     A.U. after   15 cycles
 SCF Done:  E(RB3LYP) =  -420.821200778     A.U. after   14 cycles
 SCF Done:  E(RB3LYP) =  -420.822061608     A.U. after   12 cycles
 SCF Done:  E(RB3LYP) =  -420.822123675     A.U. after   11 cycles
 SCF Done:  E(RB3LYP) =  -420.822128526     A.U. after    9 cycles
 SCF Done:  E(RB3LYP) =  -420.822131273     A.U. after   10 cycles
 SCF Done:  E(RB3LYP) =  -420.822131909     A.U. after    9 cycles
 SCF Done:  E(RB3LYP) =  -420.822131969     A.U. after    8 cycles
 Optimization completed.
    -- Stationary point found.
 Normal termination of Gaussian 16 at Mon Oct 14 00:34:23 2019.

 --------------------------------------------------------------------
 #P Geom=AllCheck Guess=TCheck SCRF=Check GenChk RB3LYP/6-31G(d) Freq
 --------------------------------------------------------------------

 Structure from the checkpoint file:  "14.chk"
 -------------------
 Title Card Required
 -------------------
 Charge =  0 Multiplicity = 1

                         Standard orientation:
 ---------------------------------------------------------------------
 Center     Atomic      Atomic             Coordinates (Angstroms)
 Number     Number       Type             X           Y           Z
 ---------------------------------------------------------------------
      1          8           0       -2.315171   -1.091968   -0.000019
      2          6           0       -1.703548    0.121596    0.000007
      3          6           0       -0.220192    0.027361    0.000007
      4          6           0        0.450346   -1.203852    0.000000
      5          6           0        1.843806   -1.234295    0.000010
      6          6           0        2.570829   -0.041372   -0.000005
      7          6           0        1.904008    1.186981   -0.000012
      8          6           0        0.512285    1.222375    0.000005
      9          8           0       -2.336735    1.158786    0.000009
     10          1           0       -3.271450   -0.901962   -0.000012
     11          1           0       -0.120582   -2.125729    0.000036
     12          1           0        2.363113   -2.188586    0.000017
     13          1           0        3.657313   -0.068798   -0.000012
     14          1           0        2.469719    2.114470   -0.000015
     15          1           0       -0.028071    2.163300    0.000000
 ---------------------------------------------------------------------

 SCF Done:  E(RB3LYP) =  -420.822131969     A.U. after    1 cycles

 The electronic state is 1-A.
 Alpha  occ. eigenvalues --  -19.19617 -19.13684 -10.32119 -10.20851 -10.20478
 Alpha  occ. eigenvalues --  -10.20337 -10.20103 -10.20069 -10.20005  -1.10392
 Alpha  occ. eigenvalues --   -1.01181  -0.86523  -0.77111  -0.75521  -0.66200
 Alpha  occ. eigenvalues --   -0.61641  -0.58722  -0.53387  -0.49300  -0.47421
 Alpha  occ. eigenvalues --   -0.45599  -0.44666  -0.44273  -0.43091  -0.39997
 Alpha  occ. eigenvalues --   -0.37095  -0.36425  -0.35173  -0.31841  -0.27678
 Alpha  occ. eigenvalues --   -0.26248  -0.26037
 Alpha virt. eigenvalues --   -0.04799  -0.00915   0.05800   0.07410   0.09572
 Alpha virt. eigenvalues --    0.13980   0.15553   0.16935   0.18033   0.18766
 Alpha virt. eigenvalues --    0.24198   0.26919   0.28910   0.29818   0.30085

 Mulliken charges:
               1
     1  O   -0.583305
     2  C    0.536141
     3  C    0.069415
     4  C   -0.159485
     5  C   -0.135699
     6  C   -0.117010
     7  C   -0.137223
     8  C   -0.154211
     9  O   -0.474208
    10  H    0.411765
    11  H    0.161284
    12  H    0.138427
    13  H    0.138842
    14  H    0.139728
    15  H    0.165539
 Sum of Mulliken charges =  -0.00000

 Dipole moment (field-independent basis, Debye):
    X=              1.3614    Y=             -1.3510    Z=              0.0000  Tot=              1.9179
 Quadrupole moment (field-independent basis, Debye-Ang):
   XX=            -43.3192   YY=            -49.5640   ZZ=            -53.0226
   XY=              5.1630   XZ=             -0.0000   YZ=             -0.0001

  Exact polarizability: 106.613  -0.884  84.294  -0.000  -0.000  27.585
 Approx polarizability: 164.432  -6.365 151.234  -0.000  -0.000  42.011

                      1                      2                      3
                      A                      A                      A
 Frequencies --     69.4419               160.4186               215.6431
 Red. masses --      7.0548                 4.5344                 5.5406
 Frc consts  --      0.0200                 0.0688                 0.1518
 IR Inten    --      0.9016                 0.4709                 1.3544

                      4                      5                      6
                      A                      A                      A
 Frequencies --    384.0227               416.6804               436.7789
 Red. masses --      7.9064                 2.9546                 3.1720
 Frc consts  --      0.6870                 0.3022                 0.3565
 IR Inten    --      5.4695                 0.4489                 6.7269

                      7                      8                      9
                      A                      A                      A
 Frequencies --    497.1902               611.5568               632.0074
 Red. masses --      7.2183                 1.2796                 6.3276
 Frc consts  --      1.0513                 0.2820                 1.4891
 IR Inten    --      5.7576                64.9647                 0.6841

                     10                     11                     12
                      A                      A                      A
 Frequencies --    637.5369               704.8749               730.4522
 Red. masses --      4.8269                 2.3120                 1.8195
 Frc consts  --      1.1559                 0.6768                 0.5720
 IR Inten    --     51.9956                 1.5331               128.4347

                     13                     14                     15
                      A                      A                      A
 Frequencies --    778.2439               818.0361               869.1004
 Red. masses --      4.7522                 2.8069                 1.2462
 Frc consts  --      1.6958                 1.1067                 0.5546
 IR Inten    --     10.0121                 0.0414                 0.0609

                     16                     17                     18
                      A                      A                      A
 Frequencies --    957.7567               985.7903              1010.2763
 Red. masses --      1.4083                 1.3527                 1.2762
 Frc consts  --      0.7611                 0.7745                 0.7674
 IR Inten    --      1.3545                 0.1142                 0.1022

                     19                     20                     21
                      A                      A                      A
 Frequencies --   1020.0869              1053.7627              1103.8264
 Red. masses --      6.3013                 2.4505                 1.8952
 Frc consts  --      3.8633                 1.6032                 1.3605
 IR Inten    --      0.8637                11.0966                60.9265

                     22                     23                     24
                      A                      A                      A
 Frequencies --   1128.7990              1194.8027              1202.5124
 Red. masses --      2.8001                 1.1063                 1.2805
 Frc consts  --      2.1021                 0.9305                 1.0909
 IR Inten    --     47.9798                 0.5486               133.1011

                     25                     26                     27
                      A                      A                      A
 Frequencies --   1224.1115              1353.3301              1368.4329
 Red. masses --      1.5744                 1.6140                 3.8160
 Frc consts  --      1.3900                 1.7417                 4.2102
 IR Inten    --    130.2267                 3.7901                 4.4527

                     28                     29                     30
                      A                      A                      A
 Frequencies --   1394.7007              1498.3420              1543.1065
 Red. masses --      2.7167                 2.2557                 2.2594
 Frc consts  --      3.1135                 2.9837                 3.1699
 IR Inten    --    120.0713                16.5870                 1.6017

                     31                     32                     33
                      A                      A                      A
 Frequencies --   1642.3873              1662.9849              1820.7436
 Red. masses --      5.6663                 5.5300                 9.7783
 Frc consts  --      9.0054                 9.0105                19.0990
 IR Inten    --      4.5384                17.7105               298.1987

                     34                     35                     36
                      A                      A                      A
 Frequencies --   3186.7517              3199.0154              3209.0484
 Red. masses --      1.0858                 1.0899                 1.0948
 Frc consts  --      6.4970                 6.5718                 6.6426
 IR Inten    --      0.4917                15.5488                21.7179

                     37                     38                     39
                      A                      A                      A
 Frequencies --   3227.0984              3232.1876              3698.8767
 Red. masses --      1.0932                 1.0932                 1.0642
 Frc consts  --      6.7078                 6.7290                 8.5782
 IR Inten    --      5.1191                 3.1530                71.4698

 - Thermochemistry -
 -------------------
 Temperature     0.001 Kelvin.  Pressure   1.00000 Atm.
 Atom     1 has atomic number  8 and mass  15.99491

 Molecular mass:   122.03678 amu.
 Principal axes and moments of inertia in atomic units:
                           1         2         3
     Eigenvalues --   466.589731476.813481943.40321
           X            0.99995   0.01018  -0.00000
           Y           -0.01018   0.99995  -0.00000
           Z            0.00000   0.00000   1.00000
 This molecule is an asymmetric top.
 Rotational symmetry number  1.
 Warning -- assumption of classical behavior for rotation
           may cause significant error
 Rotational temperatures (Kelvin)      0.18563     0.05865     0.04457
 Rotational constants (GHZ):           3.86794     1.22205     0.92865
 Zero-point vibrational energy     304334.3 (Joules/Mol)
                                   72.73763 (Kcal/Mol)
 Vibrational temperatures:     99.91   230.81   310.26   552.52   599.51
          (Kelvin)            628.43   715.35   879.89   909.32   917.27
                             1014.16  1050.96  1119.72  1176.97  1250.44
                             1378.00  1418.33  1453.56  1467.68  1516.13
                             1588.16  1624.09  1719.05  1730.15  1761.22
                             1947.14  1968.87  2006.66  2155.78  2220.19
                             2363.03  2392.66  2619.64  4585.02  4602.67
                             4617.10  4643.07  4650.40  5321.86

 Zero-point correction=                           0.115915 (Hartree/Particle)
 Thermal correction to Energy=                    0.115915
 Thermal correction to Enthalpy=                  0.115915
 Thermal correction to Gibbs Free Energy=         0.115915
 Sum of electronic and zero-point Energies=           -420.706217
 Sum of electronic and thermal Energies=              -420.706217
 Sum of electronic and thermal Enthalpies=            -420.706217
 Sum of electronic and thermal Free Energies=         -420.706217

                     E (Thermal)             CV                S
                      KCal/Mol        Cal/Mol-Kelvin    Cal/Mol-Kelvin
 Total                   72.738              5.962            -31.202
 Electronic               0.000              0.000              0.000
 Translational            0.000              2.981            -22.312
 Rotational               0.000              2.981             -8.890
 Vibrational             72.738              0.000              0.000

 Optimization completed.
    -- Stationary point found.
 Normal termination of Gaussian 16 at Mon Oct 14 00:34:41 2019.
