 Gaussian 16, Revision A.03,
 Gaussian 16:  ES64L-G16RevA.03 25-Dec-2016

 --------------------------------------------------------------
 #P opt freq b3lyp/6-31g(d) geom=connectivity temperature=0.001
 --------------------------------------------------------------

 -------------------
 Title Card Required
 -------------------
 Symbolic Z-matrix:
 Charge =  1 Multiplicity = 1

 SCF Done:  E(RB3LYP) =  -421.121647843     A.U. after   15 cycles
 SCF Done:  E(RB3LYP) =  -421.129726751     A.U. after   13 cycles
 SCF Done:  E(RB3LYP) =  -421.131361606     A.U. after   12 cycles
 SCF Done:  E(RB3LYP) =  -421.134282085     A.U. after   13 cycles
 SCF Done:  E(RB3LYP) =  -421.092397338     A.U. after   14 cycles
 SCF Done:  E(RB3LYP) =  -421.145383753     A.U. after   13 cycles
 SCF Done:  E(RB3LYP) =  -421.144766893     A.U. after   13 cycles
 SCF Done:  E(RB3LYP) =  -421.149077150     A.U. after   13 cycles
 SCF Done:  E(RB3LYP) =  -421.147953180     A.U. after   13 cycles
 SCF Done:  E(RB3LYP) =  -421.152278296     A.U. after   12 cycles
 SCF Done:  E(RB3LYP) =  -421.152595489     A.U. after    8 cycles
 SCF Done:  E(RB3LYP) =  -421.152595898     A.U. after    8 cycles
 SCF Done:  E(RB3LYP) =  -421.152596474     A.U. after    8 cycles
 SCF Done:  E(RB3LYP) =  -421.152597142     A.U. after    9 cycles
 SCF Done:  E(RB3LYP) =  -421.152597847     A.U. after    9 cycles
 SCF Done:  E(RB3LYP) =  -421.152598498     A.U. after    9 cycles
 SCF Done:  E(RB3LYP) =  -421.152598776     A.U. after    9 cycles
 SCF Done:  E(RB3LYP) =  -421.152598847     A.U. after    7 cycles
 SCF Done:  E(RB3LYP) =  -421.152598851     A.U. after    7 cycles
 Optimization completed.
    -- Stationary point found.
 Normal termination of Gaussian 16 at Mon Oct 14 00:39:28 2019.

 --------------------------------------------------------------------
 #P Geom=AllCheck Guess=TCheck SCRF=Check GenChk RB3LYP/6-31G(d) Freq
 --------------------------------------------------------------------

 Structure from the checkpoint file:  "14_p.chk"
 -------------------
 Title Card Required
 -------------------
 Charge =  1 Multiplicity = 1

                         Standard orientation:
 ---------------------------------------------------------------------
 Center     Atomic      Atomic             Coordinates (Angstroms)
 Number     Number       Type             X           Y           Z
 ---------------------------------------------------------------------
      1          8           0       -2.251708   -1.137025   -0.000083
      2          6           0       -1.622154   -0.001719   -0.000013
      3          6           0       -0.188822    0.009947   -0.000015
      4          6           0        0.505756   -1.224004    0.000030
      5          6           0        1.892557   -1.228297    0.000042
      6          6           0        2.595550   -0.017657    0.000016
      7          6           0        1.916004    1.208980   -0.000036
      8          6           0        0.531190    1.228923   -0.000050
      9          8           0       -2.398872    1.047324    0.000086
     10          1           0       -3.224480   -1.016529   -0.000027
     11          1           0       -0.047467   -2.156308    0.000056
     12          1           0        2.429337   -2.171011    0.000071
     13          1           0        3.681437   -0.026592    0.000028
     14          1           0        2.471173    2.140848   -0.000076
     15          1           0        0.030439    2.194920   -0.000131
     16          1           0       -1.916285    1.895250    0.000207
 ---------------------------------------------------------------------

 SCF Done:  E(RB3LYP) =  -421.152598851     A.U. after    1 cycles

 The electronic state is 1-A.
 Alpha  occ. eigenvalues --  -19.43426 -19.42649 -10.56896 -10.40092 -10.39082
 Alpha  occ. eigenvalues --  -10.38129 -10.37401 -10.36617 -10.36237  -1.36408
 Alpha  occ. eigenvalues --   -1.28175  -1.04599  -0.96538  -0.92957  -0.88766
 Alpha  occ. eigenvalues --   -0.83727  -0.80225  -0.77664  -0.72824  -0.68551
 Alpha  occ. eigenvalues --   -0.67072  -0.63995  -0.63121  -0.61994  -0.59607
 Alpha  occ. eigenvalues --   -0.59487  -0.56744  -0.54548  -0.53163  -0.52218
 Alpha  occ. eigenvalues --   -0.44288  -0.43057
 Alpha virt. eigenvalues --   -0.26636  -0.17516  -0.13905  -0.13817  -0.10703
 Alpha virt. eigenvalues --   -0.04836  -0.01330  -0.00809   0.00458   0.03463
 Alpha virt. eigenvalues --    0.03706   0.05248   0.07046   0.10588   0.13420

 Mulliken charges:
               1
     1  O   -0.493342
     2  C    0.586367
     3  C    0.093708
     4  C   -0.125055
     5  C   -0.123906
     6  C   -0.091082
     7  C   -0.123475
     8  C   -0.165699
     9  O   -0.516728
    10  H    0.482153
    11  H    0.212815
    12  H    0.205016
    13  H    0.208949
    14  H    0.203171
    15  H    0.163730
    16  H    0.483376
 Sum of Mulliken charges =   1.00000

 Dipole moment (field-independent basis, Debye):
    X=             -2.2680    Y=              1.3543    Z=              0.0003  Tot=              2.6415
 Quadrupole moment (field-independent basis, Debye-Ang):
   XX=            -18.6085   YY=            -34.8100   ZZ=            -51.8624
   XY=             -0.2126   XZ=             -0.0005   YZ=              0.0001

  Exact polarizability: 118.495   0.439  83.039   0.000  -0.001  26.923
 Approx polarizability: 201.829   1.108 144.884   0.001  -0.001  40.870

                      1                      2                      3
                      A                      A                      A
 Frequencies --     29.3625               146.5119               227.7179
 Red. masses --      4.1792                 4.4292                 4.8523
 Frc consts  --      0.0021                 0.0560                 0.1482
 IR Inten    --      7.6398                 1.8491                 2.3097

                      4                      5                      6
                      A                      A                      A
 Frequencies --    386.2635               394.4131               416.5362
 Red. masses --      2.5737                 6.4031                 3.2151
 Frc consts  --      0.2262                 0.5869                 0.3287
 IR Inten    --      9.3055                 5.3110                 0.8933

                      7                      8                      9
                      A                      A                      A
 Frequencies --    498.0408               527.7152               612.6928
 Red. masses --      5.2332                 1.1961                 4.0698
 Frc consts  --      0.7648                 0.1963                 0.9001
 IR Inten    --      4.5563               194.2930                36.4040

                     10                     11                     12
                      A                      A                      A
 Frequencies --    619.0569               622.6730               675.2053
 Red. masses --      1.2626                 6.4367                 1.7891
 Frc consts  --      0.2851                 1.4704                 0.4806
 IR Inten    --     60.8742                 0.9861                16.4343

                     13                     14                     15
                      A                      A                      A
 Frequencies --    719.4825               784.1725               797.9409
 Red. masses --      2.7078                 4.8977                 2.4587
 Frc consts  --      0.8258                 1.7744                 0.9224
 IR Inten    --     86.5508                13.2598                 7.8887

                     16                     17                     18
                      A                      A                      A
 Frequencies --    837.0800               958.9955               999.3820
 Red. masses --      1.2946                 1.3213                 1.3622
 Frc consts  --      0.5345                 0.7159                 0.8016
 IR Inten    --      1.0456                 0.4237                 0.2318

                     19                     20                     21
                      A                      A                      A
 Frequencies --   1011.4630              1040.7894              1049.8028
 Red. masses --      5.7318                 1.3641                 2.4470
 Frc consts  --      3.4550                 0.8706                 1.5889
 IR Inten    --      9.3038                 0.3411                 0.0304

                     22                     23                     24
                      A                      A                      A
 Frequencies --   1131.8158              1142.2850              1206.8290
 Red. masses --      1.7211                 2.2036                 1.3909
 Frc consts  --      1.2990                 1.6941                 1.1936
 IR Inten    --     11.1040                57.3687               177.6650

                     25                     26                     27
                      A                      A                      A
 Frequencies --   1210.6984              1215.6334              1243.3695
 Red. masses --      1.2629                 1.4828                 1.2025
 Frc consts  --      1.0907                 1.2911                 1.0953
 IR Inten    --    165.2660                87.3102                39.5162

                     28                     29                     30
                      A                      A                      A
 Frequencies --   1363.0630              1395.7995              1485.3098
 Red. masses --      1.7492                 3.3066                 2.4418
 Frc consts  --      1.9148                 3.7956                 3.1739
 IR Inten    --      0.6528                28.8173                 0.3065

                     31                     32                     33
                      A                      A                      A
 Frequencies --   1524.7857              1569.6925              1600.0728
 Red. masses --      1.9779                 4.8427                 4.2090
 Frc consts  --      2.7094                 7.0301                 6.3491
 IR Inten    --    124.2195               280.2665               601.2472

                     34                     35                     36
                      A                      A                      A
 Frequencies --   1636.4926              1650.8480              3175.5298
 Red. masses --      5.1942                 5.0943                 1.0901
 Frc consts  --      8.1959                 8.1799                 6.4768
 IR Inten    --    100.8993               106.0111                 6.9014

                     37                     38                     39
                      A                      A                      A
 Frequencies --   3219.3276              3231.1437              3236.6175
 Red. masses --      1.0896                 1.0916                 1.0959
 Frc consts  --      6.6534                 6.7148                 6.7639
 IR Inten    --      0.0387                 0.1780                 0.2260

                     40                     41                     42
                      A                      A                      A
 Frequencies --   3244.7995              3642.5908              3698.2194
 Red. masses --      1.0961                 1.0656                 1.0664
 Frc consts  --      6.7993                 8.3306                 8.5928
 IR Inten    --      1.3356               354.8822               107.8516

 - Thermochemistry -
 -------------------
 Temperature     0.001 Kelvin.  Pressure   1.00000 Atm.
 Atom     1 has atomic number  8 and mass  15.99491

 Molecular mass:   123.04460 amu.
 Principal axes and moments of inertia in atomic units:
                           1         2         3
     Eigenvalues --   476.881401497.453551974.33495
           X            1.00000  -0.00084  -0.00000
           Y            0.00084   1.00000  -0.00000
           Z            0.00000   0.00000   1.00000
 This molecule is an asymmetric top.
 Rotational symmetry number  1.
 Warning -- assumption of classical behavior for rotation
           may cause significant error
 Rotational temperatures (Kelvin)      0.18163     0.05784     0.04387
 Rotational constants (GHZ):           3.78447     1.20521     0.91410
 Zero-point vibrational energy     336032.3 (Joules/Mol)
                                   80.31366 (Kcal/Mol)
 Vibrational temperatures:     42.25   210.80   327.64   555.75   567.47
          (Kelvin)            599.30   716.57   759.26   881.53   890.68
                              895.89   971.47  1035.17  1128.25  1148.06
                             1204.37  1379.78  1437.89  1455.27  1497.46
                             1510.43  1628.43  1643.49  1736.36  1741.93
                             1749.03  1788.93  1961.14  2008.24  2137.03
                             2193.83  2258.44  2302.15  2354.55  2375.20
                             4568.88  4631.89  4648.90  4656.77  4668.54
                             5240.88  5320.91

 Zero-point correction=                           0.127988 (Hartree/Particle)
 Thermal correction to Energy=                    0.127988
 Thermal correction to Enthalpy=                  0.127988
 Thermal correction to Gibbs Free Energy=         0.127988
 Sum of electronic and zero-point Energies=           -421.024611
 Sum of electronic and thermal Energies=              -421.024611
 Sum of electronic and thermal Enthalpies=            -421.024611
 Sum of electronic and thermal Free Energies=         -421.024611

                     E (Thermal)             CV                S
                      KCal/Mol        Cal/Mol-Kelvin    Cal/Mol-Kelvin
 Total                   80.314              5.962            -31.127
 Electronic               0.000              0.000              0.000
 Translational            0.000              2.981            -22.287
 Rotational               0.000              2.981             -8.839
 Vibrational             80.314              0.000              0.000

 Optimization completed.
    -- Stationary point found.
 Normal termination of Gaussian 16 at Mon Oct 14 00:39:46 2019.
