 Gaussian 16, Revision A.03,
 Gaussian 16:  ES64L-G16RevA.03 25-Dec-2016

 --------------------------------------------------------------
 #p opt freq b3lyp/6-31g(d) geom=connectivity temperature=0.001
 --------------------------------------------------------------

 -------------------
 Title Card Required
 -------------------
 Symbolic Z-matrix:
 Charge =  0 Multiplicity = 1

 SCF Done:  E(RB3LYP) =  -576.610415301     A.U. after   15 cycles
 SCF Done:  E(RB3LYP) =  -576.629315654     A.U. after   14 cycles
 SCF Done:  E(RB3LYP) =  -576.631541032     A.U. after   13 cycles
 SCF Done:  E(RB3LYP) =  -576.631902582     A.U. after   13 cycles
 SCF Done:  E(RB3LYP) =  -576.632136825     A.U. after   12 cycles
 SCF Done:  E(RB3LYP) =  -576.632220686     A.U. after   11 cycles
 SCF Done:  E(RB3LYP) =  -576.632249296     A.U. after   11 cycles
 SCF Done:  E(RB3LYP) =  -576.632259292     A.U. after   11 cycles
 SCF Done:  E(RB3LYP) =  -576.632260075     A.U. after    9 cycles
 SCF Done:  E(RB3LYP) =  -576.632260217     A.U. after    8 cycles
 Optimization completed.
    -- Stationary point found.
 Normal termination of Gaussian 16 at Mon Oct 14 11:09:06 2019.

 --------------------------------------------------------------------
 #P Geom=AllCheck Guess=TCheck SCRF=Check GenChk RB3LYP/6-31G(d) Freq
 --------------------------------------------------------------------

 Structure from the checkpoint file:  "15.chk"
 -------------------
 Title Card Required
 -------------------
 Charge =  0 Multiplicity = 1

                         Standard orientation:
 ---------------------------------------------------------------------
 Center     Atomic      Atomic             Coordinates (Angstroms)
 Number     Number       Type             X           Y           Z
 ---------------------------------------------------------------------
      1          8           0        0.000013    2.306140   -0.000127
      2          6           0       -0.000006    1.079736   -0.000048
      3          6           0       -1.304013    0.336855    0.024515
      4          6           0       -1.454885   -0.926549    0.616724
      5          6           0       -2.709759   -1.534781    0.669082
      6          6           0       -3.821535   -0.894370    0.120061
      7          6           0       -3.681191    0.367591   -0.465839
      8          6           0       -2.434232    0.983873   -0.500965
      9          6           0        1.304012    0.336857   -0.024520
     10          6           0        1.454920   -0.926487   -0.616828
     11          6           0        2.709814   -1.534701   -0.669178
     12          6           0        3.821536   -0.894342   -0.120004
     13          6           0        3.681139    0.367562    0.466022
     14          6           0        2.434180    0.983833    0.501120
     15          1           0       -0.597867   -1.422978    1.060473
     16          1           0       -2.818504   -2.507219    1.141630
     17          1           0       -4.796630   -1.373172    0.153916
     18          1           0       -4.546750    0.871010   -0.887961
     19          1           0       -2.309978    1.972489   -0.931004
     20          1           0        0.597940   -1.422878   -1.060691
     21          1           0        2.818588   -2.507084   -1.141832
     22          1           0        4.796647   -1.373111   -0.153833
     23          1           0        4.546675    0.870934    0.888249
     24          1           0        2.309897    1.972424    0.931212
 ---------------------------------------------------------------------

 SCF Done:  E(RB3LYP) =  -576.632260217     A.U. after    1 cycles

 The electronic state is 1-A.
 Alpha  occ. eigenvalues --  -19.13235 -10.27386 -10.20200 -10.20200 -10.20165
 Alpha  occ. eigenvalues --  -10.20164 -10.20147 -10.20147 -10.19884 -10.19884
 Alpha  occ. eigenvalues --  -10.19740 -10.19740 -10.19631 -10.19630  -1.03160
 Alpha  occ. eigenvalues --   -0.86357  -0.85854  -0.77477  -0.75410  -0.75223
 Alpha  occ. eigenvalues --   -0.74875  -0.65240  -0.61642  -0.61299  -0.60236
 Alpha  occ. eigenvalues --   -0.55822  -0.52987  -0.50523  -0.47333  -0.46015
 Alpha  occ. eigenvalues --   -0.45595  -0.44925  -0.43369  -0.42825  -0.42722
 Alpha  occ. eigenvalues --   -0.41786  -0.39551  -0.37207  -0.36761  -0.35979
 Alpha  occ. eigenvalues --   -0.35491  -0.34706  -0.34422  -0.26146  -0.26045
 Alpha  occ. eigenvalues --   -0.25780  -0.25723  -0.24282
 Alpha virt. eigenvalues --   -0.06240  -0.01445  -0.00887  -0.00365   0.05717
 Alpha virt. eigenvalues --    0.08994   0.09582   0.13721   0.14207   0.14805
 Alpha virt. eigenvalues --    0.15342   0.15907   0.17416   0.18074   0.18218

 Mulliken charges:
               1
     1  O   -0.464568
     2  C    0.319419
     3  C    0.071641
     4  C   -0.176706
     5  C   -0.136819
     6  C   -0.119309
     7  C   -0.135184
     8  C   -0.150479
     9  C    0.071640
    10  C   -0.176702
    11  C   -0.136819
    12  C   -0.119310
    13  C   -0.135187
    14  C   -0.150474
    15  H    0.149040
    16  H    0.136035
    17  H    0.136826
    18  H    0.137954
    19  H    0.159578
    20  H    0.149038
    21  H    0.136034
    22  H    0.136824
    23  H    0.137953
    24  H    0.159574
 Sum of Mulliken charges =  -0.00000

 Dipole moment (field-independent basis, Debye):
    X=             -0.0002    Y=             -2.9752    Z=              0.0002  Tot=              2.9752
 Quadrupole moment (field-independent basis, Debye-Ang):
   XX=            -64.5377   YY=            -81.4234   ZZ=            -80.9156
   XY=             -0.0002   XZ=              2.3071   YZ=              0.0009

  Exact polarizability: 198.540  -0.001 132.185  12.496   0.002  65.695
 Approx polarizability: 281.756  -0.001 249.426  24.836   0.003 109.155

                      1                      2                      3
                      A                      A                      A
 Frequencies --     43.0248                65.4674                96.2987
 Red. masses --      4.7009                 4.0046                 4.4798
 Frc consts  --      0.0051                 0.0101                 0.0245
 IR Inten    --      1.3960                 0.2015                 0.4652

                      4                      5                      6
                      A                      A                      A
 Frequencies --    138.2736               215.7960               238.2068
 Red. masses --      6.0766                 4.7418                 5.0114
 Frc consts  --      0.0685                 0.1301                 0.1675
 IR Inten    --      2.1239                 0.0183                 3.9644

                      7                      8                      9
                      A                      A                      A
 Frequencies --    289.7719               381.0857               414.4845
 Red. masses --      5.7301                 7.1089                 2.9658
 Frc consts  --      0.2835                 0.6083                 0.3002
 IR Inten    --      0.0469                 6.5482                 0.3168

                     10                     11                     12
                      A                      A                      A
 Frequencies --    425.7707               447.0811               452.4014
 Red. masses --      3.0430                 4.4859                 4.2235
 Frc consts  --      0.3250                 0.5283                 0.5093
 IR Inten    --      0.0027                 0.9265                 1.1433

                     13                     14                     15
                      A                      A                      A
 Frequencies --    572.4250               630.9538               633.5267
 Red. masses --      5.1575                 6.4087                 6.4280
 Frc consts  --      0.9957                 1.5032                 1.5200
 IR Inten    --      0.0039                 0.2594                 0.0476

                     16                     17                     18
                      A                      A                      A
 Frequencies --    652.4615               695.4243               712.0563
 Red. masses --      6.2969                 4.9248                 2.2011
 Frc consts  --      1.5794                 1.4033                 0.6575
 IR Inten    --     40.0429                 0.6058                 5.9738

                     19                     20                     21
                      A                      A                      A
 Frequencies --    718.0670               733.5633               779.9971
 Red. masses --      1.3574                 4.3530                 1.7639
 Frc consts  --      0.4124                 1.3801                 0.6323
 IR Inten    --     99.1977                 1.9556                11.3627

                     22                     23                     24
                      A                      A                      A
 Frequencies --    830.7841               867.0879               871.8379
 Red. masses --      2.8984                 1.2535                 1.2442
 Frc consts  --      1.1787                 0.5553                 0.5572
 IR Inten    --      4.4074                 4.1507                 0.3687

                     25                     26                     27
                      A                      A                      A
 Frequencies --    938.6008               953.1830               959.7544
 Red. masses --      2.7642                 1.3534                 2.0846
 Frc consts  --      1.4348                 0.7245                 1.1313
 IR Inten    --     46.9590                 0.2340                22.5527

                     28                     29                     30
                      A                      A                      A
 Frequencies --    980.5422               985.1911              1005.2854
 Red. masses --      1.3641                 1.3405                 1.2807
 Frc consts  --      0.7727                 0.7666                 0.7626
 IR Inten    --      7.3658                 0.2029                 1.8788

                     31                     32                     33
                      A                      A                      A
 Frequencies --   1005.9481              1017.7838              1019.4017
 Red. masses --      1.2648                 6.2081                 6.0015
 Frc consts  --      0.7541                 3.7889                 3.6745
 IR Inten    --      0.0029                 2.2984                 0.0076

                     34                     35                     36
                      A                      A                      A
 Frequencies --   1056.1091              1059.0201              1111.9203
 Red. masses --      2.3911                 2.0309                 1.5719
 Frc consts  --      1.5713                 1.3420                 1.1450
 IR Inten    --      0.1708                 2.2338                 3.2056

                     37                     38                     39
                      A                      A                      A
 Frequencies --   1116.0397              1172.9933              1194.4688
 Red. masses --      1.5627                 3.2059                 1.1024
 Frc consts  --      1.1468                 2.5989                 0.9267
 IR Inten    --      5.6337                 5.7078                 0.1128

                     40                     41                     42
                      A                      A                      A
 Frequencies --   1194.4875              1209.7243              1215.6500
 Red. masses --      1.1069                 1.1372                 1.1713
 Frc consts  --      0.9305                 0.9805                 1.0199
 IR Inten    --      0.0420                34.4495                 0.0300

                     43                     44                     45
                      A                      A                      A
 Frequencies --   1298.1488              1349.4311              1350.3340
 Red. masses --      4.0222                 2.3639                 2.2276
 Frc consts  --      3.9935                 2.5361                 2.3931
 IR Inten    --    286.0532                50.9700                 0.2316

                     46                     47                     48
                      A                      A                      A
 Frequencies --   1366.4137              1367.9252              1492.4735
 Red. masses --      2.4397                 2.3128                 2.2276
 Frc consts  --      2.6838                 2.5498                 2.9235
 IR Inten    --      3.2894                 3.0075                24.2894

                     49                     50                     51
                      A                      A                      A
 Frequencies --   1493.0289              1536.7669              1540.3313
 Red. masses --      2.2313                 2.1358                 2.2155
 Frc consts  --      2.9305                 2.9718                 3.0970
 IR Inten    --      4.0155                 0.0011                 1.7481

                     52                     53                     54
                      A                      A                      A
 Frequencies --   1635.3866              1636.6492              1657.0026
 Red. masses --      5.4474                 5.3113                 5.5314
 Frc consts  --      8.5838                 8.3823                 8.9481
 IR Inten    --     10.3745                 1.8995                15.8356

                     55                     56                     57
                      A                      A                      A
 Frequencies --   1658.4278              1738.8032              3184.3299
 Red. masses --      5.4570                12.2492                 1.0854
 Frc consts  --      8.8430                21.8202                 6.4845
 IR Inten    --     23.3694               150.4340                 0.0616

                     58                     59                     60
                      A                      A                      A
 Frequencies --   3184.4948              3194.8472              3195.3409
 Red. masses --      1.0854                 1.0891                 1.0894
 Frc consts  --      6.4854                 6.5497                 6.5534
 IR Inten    --      0.0839                 5.6629                18.7058

                     61                     62                     63
                      A                      A                      A
 Frequencies --   3205.3039              3206.3350              3214.8571
 Red. masses --      1.0932                 1.0937                 1.0948
 Frc consts  --      6.6175                 6.6246                 6.6668
 IR Inten    --     58.5792                 4.0314                 5.9520

                     64                     65                     66
                      A                      A                      A
 Frequencies --   3218.2736              3223.1038              3223.5111
 Red. masses --      1.0933                 1.0933                 1.0937
 Frc consts  --      6.6716                 6.6919                 6.6957
 IR Inten    --     13.6012                12.8312                 0.9493

 - Thermochemistry -
 -------------------
 Temperature     0.001 Kelvin.  Pressure   1.00000 Atm.
 Atom     1 has atomic number  8 and mass  15.99491

 Molecular mass:   182.07317 amu.
 Principal axes and moments of inertia in atomic units:
                           1         2         3
     Eigenvalues --  1050.311244431.898015198.36580
           X            1.00000  -0.00000   0.00273
           Y            0.00000   1.00000   0.00000
           Z           -0.00273  -0.00000   1.00000
 This molecule is an asymmetric top.
 Rotational symmetry number  1.
 Warning -- assumption of classical behavior for rotation
           may cause significant error
 Rotational temperatures (Kelvin)      0.08247     0.01954     0.01666
 Rotational constants (GHZ):           1.71829     0.40722     0.34717
 Zero-point vibrational energy     504067.3 (Joules/Mol)
                                  120.47498 (Kcal/Mol)
 Vibrational temperatures:     61.90    94.19   138.55   198.94   310.48
          (Kelvin)            342.73   416.92   548.30   596.35   612.59
                              643.25   650.90   823.59   907.80   911.50
                              938.75  1000.56  1024.49  1033.14  1055.43
                             1122.24  1195.31  1247.55  1254.38  1350.44
                             1371.42  1380.87  1410.78  1417.47  1446.38
                             1447.33  1464.36  1466.69  1519.51  1523.69
                             1599.81  1605.73  1687.68  1718.57  1718.60
                             1740.52  1749.05  1867.75  1941.53  1942.83
                             1965.96  1968.14  2147.34  2148.14  2211.06
                             2216.19  2352.96  2354.77  2384.06  2386.11
                             2501.75  4581.54  4581.78  4596.67  4597.38
                             4611.72  4613.20  4625.46  4630.38  4637.33
                             4637.91

 Zero-point correction=                           0.191989 (Hartree/Particle)
 Thermal correction to Energy=                    0.191989
 Thermal correction to Enthalpy=                  0.191989
 Thermal correction to Gibbs Free Energy=         0.191989
 Sum of electronic and zero-point Energies=           -576.440271
 Sum of electronic and thermal Energies=              -576.440271
 Sum of electronic and thermal Enthalpies=            -576.440271
 Sum of electronic and thermal Free Energies=         -576.440271

                     E (Thermal)             CV                S
                      KCal/Mol        Cal/Mol-Kelvin    Cal/Mol-Kelvin
 Total                  120.475              5.962            -27.134
 Electronic               0.000              0.000              0.000
 Translational            0.000              2.981            -21.119
 Rotational               0.000              2.981             -6.015
 Vibrational            120.475              0.000              0.000

 Optimization completed.
    -- Stationary point found.
 Normal termination of Gaussian 16 at Mon Oct 14 11:10:00 2019.
