 Gaussian 16, Revision A.03,
 Gaussian 16:  ES64L-G16RevA.03 25-Dec-2016

 --------------------------------------------------------------
 #p opt freq b3lyp/6-31g(d) geom=connectivity temperature=0.001
 --------------------------------------------------------------

 -------------------
 Title Card Required
 -------------------
 Symbolic Z-matrix:
 Charge =  1 Multiplicity = 1

 SCF Done:  E(RB3LYP) =  -576.957549185     A.U. after   15 cycles
 SCF Done:  E(RB3LYP) =  -576.983326141     A.U. after   13 cycles
 SCF Done:  E(RB3LYP) =  -576.988162306     A.U. after   13 cycles
 SCF Done:  E(RB3LYP) =  -576.990000265     A.U. after   13 cycles
 SCF Done:  E(RB3LYP) =  -576.990555262     A.U. after   12 cycles
 SCF Done:  E(RB3LYP) =  -576.990636392     A.U. after   11 cycles
 SCF Done:  E(RB3LYP) =  -576.990639268     A.U. after    9 cycles
 SCF Done:  E(RB3LYP) =  -576.990642960     A.U. after    8 cycles
 SCF Done:  E(RB3LYP) =  -576.990643135     A.U. after    8 cycles
 Optimization completed.
    -- Stationary point found.
 Normal termination of Gaussian 16 at Mon Oct 14 11:07:12 2019.

 --------------------------------------------------------------------
 #P Geom=AllCheck Guess=TCheck SCRF=Check GenChk RB3LYP/6-31G(d) Freq
 --------------------------------------------------------------------

 Structure from the checkpoint file:  "15_p.chk"
 -------------------
 Title Card Required
 -------------------
 Charge =  1 Multiplicity = 1

                         Standard orientation:
 ---------------------------------------------------------------------
 Center     Atomic      Atomic             Coordinates (Angstroms)
 Number     Number       Type             X           Y           Z
 ---------------------------------------------------------------------
      1          8           0        0.062551    2.270458    0.112404
      2          6           0        0.018027    0.954719    0.048672
      3          6           0       -1.277053    0.301219    0.033424
      4          6           0       -1.473268   -0.938528    0.683763
      5          6           0       -2.738844   -1.512715    0.711711
      6          6           0       -3.812709   -0.875536    0.081984
      7          6           0       -3.628811    0.349141   -0.572384
      8          6           0       -2.375304    0.944374   -0.587955
      9          6           0        1.295158    0.304015   -0.008760
     10          6           0        1.421301   -1.006836   -0.536624
     11          6           0        2.670271   -1.605289   -0.610566
     12          6           0        3.803249   -0.915822   -0.161325
     13          6           0        3.694652    0.384136    0.352895
     14          6           0        2.455609    0.999014    0.422242
     15          1           0       -0.649580   -1.411882    1.206692
     16          1           0       -2.892180   -2.452543    1.232140
     17          1           0       -4.797326   -1.332907    0.100412
     18          1           0       -4.461650    0.829416   -1.075645
     19          1           0       -2.231490    1.868945   -1.142569
     20          1           0        0.550819   -1.521707   -0.926649
     21          1           0        2.769268   -2.601250   -1.029559
     22          1           0        4.778452   -1.390451   -0.218867
     23          1           0        4.579753    0.908200    0.698321
     24          1           0        2.360862    1.999651    0.828442
     25          1           0       -0.821005    2.649511    0.285590
 ---------------------------------------------------------------------

 SCF Done:  E(RB3LYP) =  -576.990643135     A.U. after    1 cycles

 The electronic state is 1-A.
 Alpha  occ. eigenvalues --  -19.39374 -10.47950 -10.37460 -10.36856 -10.36290
 Alpha  occ. eigenvalues --  -10.36038 -10.35835 -10.35460 -10.35187 -10.35172
 Alpha  occ. eigenvalues --  -10.34641 -10.34481 -10.34091 -10.33995  -1.28241
 Alpha  occ. eigenvalues --   -1.02769  -1.01272  -0.95208  -0.91353  -0.90689
 Alpha  occ. eigenvalues --   -0.90041  -0.84480  -0.78937  -0.77077  -0.75608
 Alpha  occ. eigenvalues --   -0.74739  -0.70590  -0.68352  -0.65060  -0.63253
 Alpha  occ. eigenvalues --   -0.62150  -0.60946  -0.60236  -0.58777  -0.58532
 Alpha  occ. eigenvalues --   -0.57940  -0.57200  -0.55121  -0.52358  -0.51832
 Alpha  occ. eigenvalues --   -0.51441  -0.50486  -0.49954  -0.49270  -0.43054
 Alpha  occ. eigenvalues --   -0.41151  -0.40856  -0.40503
 Alpha virt. eigenvalues --   -0.26171  -0.17132  -0.16147  -0.14960  -0.10933
 Alpha virt. eigenvalues --   -0.08419  -0.04054  -0.03248  -0.01125   0.00415
 Alpha virt. eigenvalues --    0.01138   0.01743   0.01854   0.02781   0.04946

 Mulliken charges:
               1
     1  O   -0.513874
     2  C    0.297587
     3  C    0.071059
     4  C   -0.148398
     5  C   -0.128175
     6  C   -0.098431
     7  C   -0.122927
     8  C   -0.186332
     9  C    0.078233
    10  C   -0.151301
    11  C   -0.130861
    12  C   -0.093321
    13  C   -0.126589
    14  C   -0.125559
    15  H    0.190292
    16  H    0.192466
    17  H    0.196958
    18  H    0.193708
    19  H    0.182114
    20  H    0.188955
    21  H    0.190538
    22  H    0.197495
    23  H    0.193205
    24  H    0.196874
    25  H    0.456286
 Sum of Mulliken charges =   1.00000

 Dipole moment (field-independent basis, Debye):
    X=             -0.9952    Y=              0.4646    Z=              0.3260  Tot=              1.1457
 Quadrupole moment (field-independent basis, Debye-Ang):
   XX=            -29.3020   YY=            -59.5697   ZZ=            -77.6903
   XY=             -3.4286   XZ=              1.7746   YZ=              0.5724

  Exact polarizability: 245.221  -1.911 131.992   8.796  -1.245  64.934
 Approx polarizability: 375.197  -4.801 248.618  19.456  -2.763 107.463

                      1                      2                      3
                      A                      A                      A
 Frequencies --     57.5849                79.5974                92.3445
 Red. masses --      4.3170                 4.1354                 4.2783
 Frc consts  --      0.0084                 0.0154                 0.0215
 IR Inten    --      1.6179                 0.1255                 0.0485

                      4                      5                      6
                      A                      A                      A
 Frequencies --    143.6972               212.2054               253.8344
 Red. masses --      5.0732                 4.6006                 4.7384
 Frc consts  --      0.0617                 0.1221                 0.1799
 IR Inten    --      4.4016                 1.4020                 1.2740

                      7                      8                      9
                      A                      A                      A
 Frequencies --    302.5376               373.2175               405.9498
 Red. masses --      5.6260                 4.6517                 2.8931
 Frc consts  --      0.3034                 0.3818                 0.2809
 IR Inten    --      0.3900                 5.0192                 4.6348

                     10                     11                     12
                      A                      A                      A
 Frequencies --    419.9466               437.9899               444.0428
 Red. masses --      2.9903                 3.9793                 4.0252
 Frc consts  --      0.3107                 0.4498                 0.4676
 IR Inten    --      1.1487                 9.2504                 1.1631

                     13                     14                     15
                      A                      A                      A
 Frequencies --    564.5336               623.0529               625.5439
 Red. masses --      5.2083                 6.2664                 6.2751
 Frc consts  --      0.9780                 1.4332                 1.4467
 IR Inten    --      0.5989                 3.2487                 3.8796

                     16                     17                     18
                      A                      A                      A
 Frequencies --    630.4931               654.5892               681.4898
 Red. masses --      5.3571                 1.2742                 2.3926
 Frc consts  --      1.2547                 0.3217                 0.6547
 IR Inten    --     43.1721               105.9960                 5.4863

                     19                     20                     21
                      A                      A                      A
 Frequencies --    696.5802               719.9763               739.2842
 Red. masses --      2.2096                 1.6540                 5.0624
 Frc consts  --      0.6317                 0.5052                 1.6302
 IR Inten    --      6.6103                93.2130                 0.9324

                     22                     23                     24
                      A                      A                      A
 Frequencies --    790.4656               819.8023               859.5454
 Red. masses --      1.6776                 2.7019                 1.2589
 Frc consts  --      0.6176                 1.0699                 0.5480
 IR Inten    --     22.0053                12.0950                12.1722

                     25                     26                     27
                      A                      A                      A
 Frequencies --    864.5245               921.3992               969.4782
 Red. masses --      1.2449                 3.9627                 1.3474
 Frc consts  --      0.5482                 1.9821                 0.7461
 IR Inten    --      4.8996                18.4786                 0.2696

                     28                     29                     30
                      A                      A                      A
 Frequencies --    981.8409               997.3054              1002.1932
 Red. masses --      1.3393                 1.4062                 1.4080
 Frc consts  --      0.7607                 0.8241                 0.8332
 IR Inten    --      1.2332                 5.1033                 1.4417

                     31                     32                     33
                      A                      A                      A
 Frequencies --   1010.7146              1013.7181              1034.1564
 Red. masses --      5.3425                 4.8033                 1.3361
 Frc consts  --      3.2155                 2.9082                 0.8419
 IR Inten    --     26.9385                 1.1692                 0.1854

                     34                     35                     36
                      A                      A                      A
 Frequencies --   1036.1630              1050.7002              1052.8338
 Red. masses --      1.3517                 2.3283                 2.2315
 Frc consts  --      0.8551                 1.5144                 1.4574
 IR Inten    --      0.4637                 0.1645                 0.6263

                     37                     38                     39
                      A                      A                      A
 Frequencies --   1128.0439              1129.9181              1195.8436
 Red. masses --      1.5975                 1.6155                 3.2947
 Frc consts  --      1.1977                 1.2152                 2.7759
 IR Inten    --      2.2982                13.5127                 3.9589

                     40                     41                     42
                      A                      A                      A
 Frequencies --   1207.9383              1208.1355              1219.0198
 Red. masses --      1.0963                 1.0966                 1.1994
 Frc consts  --      0.9425                 0.9431                 1.0501
 IR Inten    --      1.8283                 2.5471               145.5641

                     43                     44                     45
                      A                      A                      A
 Frequencies --   1227.5286              1249.1633              1344.4829
 Red. masses --      1.2167                 1.4713                 1.9988
 Frc consts  --      1.0801                 1.3526                 2.1288
 IR Inten    --     14.8310               191.9792                16.3900

                     46                     47                     48
                      A                      A                      A
 Frequencies --   1348.1241              1383.0104              1390.1498
 Red. masses --      2.2802                 2.2624                 2.9143
 Frc consts  --      2.4416                 2.5496                 3.3183
 IR Inten    --     31.5010                18.5662                29.3142

                     49                     50                     51
                      A                      A                      A
 Frequencies --   1432.0500              1468.6540              1502.1391
 Red. masses --      4.5799                 2.2091                 2.1886
 Frc consts  --      5.5337                 2.8074                 2.9097
 IR Inten    --    161.8233               195.9472               176.4292

                     52                     53                     54
                      A                      A                      A
 Frequencies --   1507.0516              1534.1658              1554.1330
 Red. masses --      2.6500                 2.1454                 2.9981
 Frc consts  --      3.5461                 2.9751                 4.2665
 IR Inten    --    120.6784                 9.0791               353.6690

                     55                     56                     57
                      A                      A                      A
 Frequencies --   1615.1243              1621.1398              1643.9582
 Red. masses --      4.4268                 4.6843                 5.0927
 Frc consts  --      6.8039                 7.2533                 8.1093
 IR Inten    --      7.1578                 1.8815               277.3925

                     58                     59                     60
                      A                      A                      A
 Frequencies --   1653.4645              3187.5401              3213.3147
 Red. masses --      5.3050                 1.0900                 1.0885
 Frc consts  --      8.5452                 6.5249                 6.6217
 IR Inten    --     58.9518                 0.6590                 0.0540

                     61                     62                     63
                      A                      A                      A
 Frequencies --   3214.7451              3223.2097              3224.2882
 Red. masses --      1.0885                 1.0905                 1.0904
 Frc consts  --      6.6281                 6.6750                 6.6789
 IR Inten    --      0.0295                 0.1989                 0.7360

                     64                     65                     66
                      A                      A                      A
 Frequencies --   3229.0193              3230.7424              3235.8514
 Red. masses --      1.0933                 1.0948                 1.0975
 Frc consts  --      6.7161                 6.7329                 6.7705
 IR Inten    --      1.1405                 0.4167                 0.6457

                     67                     68                     69
                      A                      A                      A
 Frequencies --   3239.3636              3241.8133              3663.7211
 Red. masses --      1.0946                 1.0958                 1.0656
 Frc consts  --      6.7676                 6.7853                 8.4273
 IR Inten    --      0.2109                 1.3693               123.1658

 - Thermochemistry -
 -------------------
 Temperature     0.001 Kelvin.  Pressure   1.00000 Atm.
 Atom     1 has atomic number  8 and mass  15.99491

 Molecular mass:   183.08099 amu.
 Principal axes and moments of inertia in atomic units:
                           1         2         3
     Eigenvalues --  1070.102194399.037435178.47433
           X            1.00000  -0.00152   0.00262
           Y            0.00153   1.00000  -0.00204
           Z           -0.00261   0.00204   0.99999
 This molecule is an asymmetric top.
 Rotational symmetry number  1.
 Warning -- assumption of classical behavior for rotation
           may cause significant error
 Rotational temperatures (Kelvin)      0.08094     0.01969     0.01673
 Rotational constants (GHZ):           1.68651     0.41026     0.34851
 Zero-point vibrational energy     538500.1 (Joules/Mol)
                                  128.70460 (Kcal/Mol)
 Vibrational temperatures:     82.85   114.52   132.86   206.75   305.32
          (Kelvin)            365.21   435.28   536.98   584.07   604.21
                              630.17   638.88   812.24   896.43   900.02
                              907.14   941.81   980.51  1002.22  1035.89
                             1063.67  1137.30  1179.51  1236.69  1243.86
                             1325.69  1394.86  1412.65  1434.90  1441.93
                             1454.19  1458.51  1487.92  1490.81  1511.72
                             1514.79  1623.00  1625.70  1720.55  1737.95
                             1738.24  1753.90  1766.14  1797.27  1934.41
                             1939.65  1989.84  2000.12  2060.40  2113.07
                             2161.24  2168.31  2207.32  2236.05  2323.80
                             2332.46  2365.29  2378.97  4586.16  4623.24
                             4625.30  4637.48  4639.03  4645.84  4648.32
                             4655.67  4660.72  4664.25  5271.28

 Zero-point correction=                           0.205104 (Hartree/Particle)
 Thermal correction to Energy=                    0.205104
 Thermal correction to Enthalpy=                  0.205104
 Thermal correction to Gibbs Free Energy=         0.205104
 Sum of electronic and zero-point Energies=           -576.785539
 Sum of electronic and thermal Energies=              -576.785539
 Sum of electronic and thermal Enthalpies=            -576.785539
 Sum of electronic and thermal Free Energies=         -576.785539

                     E (Thermal)             CV                S
                      KCal/Mol        Cal/Mol-Kelvin    Cal/Mol-Kelvin
 Total                  128.705              5.962            -27.110
 Electronic               0.000              0.000              0.000
 Translational            0.000              2.981            -21.103
 Rotational               0.000              2.981             -6.007
 Vibrational            128.705              0.000              0.000

                           ! Non-Optimized Parameters !
 Normal termination of Gaussian 16 at Mon Oct 14 11:08:13 2019.
