 Gaussian 16, Revision A.03,
 Gaussian 16:  ES64L-G16RevA.03 25-Dec-2016

 --------------------------------------------------------------
 #P opt freq b3lyp/6-31g(d) geom=connectivity temperature=0.001
 --------------------------------------------------------------

 -------------------
 Title Card Required
 -------------------
 Symbolic Z-matrix:
 Charge =  0 Multiplicity = 1

 SCF Done:  E(RB3LYP) =  -193.148924642     A.U. after   13 cycles
 SCF Done:  E(RB3LYP) =  -193.153947883     A.U. after   12 cycles
 SCF Done:  E(RB3LYP) =  -193.154471817     A.U. after   11 cycles
 SCF Done:  E(RB3LYP) =  -193.154605744     A.U. after   10 cycles
 SCF Done:  E(RB3LYP) =  -193.154821283     A.U. after   11 cycles
 SCF Done:  E(RB3LYP) =  -193.155238540     A.U. after   11 cycles
 SCF Done:  E(RB3LYP) =  -193.155478359     A.U. after   11 cycles
 SCF Done:  E(RB3LYP) =  -193.155597992     A.U. after   11 cycles
 SCF Done:  E(RB3LYP) =  -193.155617662     A.U. after   10 cycles
 SCF Done:  E(RB3LYP) =  -193.155633076     A.U. after    9 cycles
 SCF Done:  E(RB3LYP) =  -193.155654143     A.U. after   10 cycles
 SCF Done:  E(RB3LYP) =  -193.155680062     A.U. after   10 cycles
 SCF Done:  E(RB3LYP) =  -193.155689977     A.U. after   10 cycles
 SCF Done:  E(RB3LYP) =  -193.155692809     A.U. after   10 cycles
 SCF Done:  E(RB3LYP) =  -193.155692796     A.U. after    7 cycles
 SCF Done:  E(RB3LYP) =  -193.155692878     A.U. after    7 cycles
 SCF Done:  E(RB3LYP) =  -193.155692893     A.U. after    7 cycles
 Optimization completed.
    -- Stationary point found.
 Normal termination of Gaussian 16 at Mon Oct 14 00:43:35 2019.

 --------------------------------------------------------------------
 #P Geom=AllCheck Guess=TCheck SCRF=Check GenChk RB3LYP/6-31G(d) Freq
 --------------------------------------------------------------------

 Structure from the checkpoint file:  "16.chk"
 -------------------
 Title Card Required
 -------------------
 Charge =  0 Multiplicity = 1

                         Standard orientation:
 ---------------------------------------------------------------------
 Center     Atomic      Atomic             Coordinates (Angstroms)
 Number     Number       Type             X           Y           Z
 ---------------------------------------------------------------------
      1          6           0       -1.293087   -0.614779    0.000001
      2          6           0       -0.000001    0.185305   -0.000006
      3          6           0        1.293078   -0.614798   -0.000000
      4          8           0        0.000014    1.400982    0.000001
      5          1           0       -1.341459   -1.267349    0.880950
      6          1           0       -2.148506    0.063568    0.000040
      7          1           0       -1.341503   -1.267300   -0.880982
      8          1           0        1.341417   -1.267393    0.880933
      9          1           0        1.341497   -1.267291   -0.881000
     10          1           0        2.148503    0.063541    0.000081
 ---------------------------------------------------------------------

 SCF Done:  E(RB3LYP) =  -193.155692893     A.U. after    1 cycles

 The electronic state is 1-A.
 Alpha  occ. eigenvalues --  -19.13581 -10.27765 -10.19077 -10.19076  -1.03560
 Alpha  occ. eigenvalues --   -0.76692  -0.70972  -0.53079  -0.45786  -0.45756
 Alpha  occ. eigenvalues --   -0.44771  -0.40400  -0.39298  -0.37850  -0.34698
 Alpha  occ. eigenvalues --   -0.24419
 Alpha virt. eigenvalues --   -0.01116   0.08793   0.13746   0.14816   0.16106
 Alpha virt. eigenvalues --    0.17079   0.18037   0.19816   0.29022   0.32347
 Alpha virt. eigenvalues --    0.49213   0.53667   0.56476   0.57371   0.57614

 Mulliken charges:
               1
     1  C   -0.526099
     2  C    0.452707
     3  C   -0.526098
     4  O   -0.426262
     5  H    0.166244
     6  H    0.180386
     7  H    0.166246
     8  H    0.166242
     9  H    0.166246
    10  H    0.180386
 Sum of Mulliken charges =   0.00000

 Dipole moment (field-independent basis, Debye):
    X=             -0.0000    Y=             -2.8154    Z=             -0.0000  Tot=              2.8154
 Quadrupole moment (field-independent basis, Debye-Ang):
   XX=            -23.4922   YY=            -28.2020   ZZ=            -23.8860
   XY=             -0.0000   XZ=             -0.0000   YZ=              0.0000

  Exact polarizability:  36.156   0.000  38.676   0.000   0.000  26.856
 Approx polarizability:  42.393   0.000  61.422  -0.000   0.000  37.338

                      1                      2                      3
                      A                      A                      A
 Frequencies --     50.4677               137.3716               376.7013
 Red. masses --      1.0175                 1.1261                 2.1920
 Frc consts  --      0.0015                 0.0125                 0.1833
 IR Inten    --      0.0000                 0.0987                 1.2249

                      4                      5                      6
                      A                      A                      A
 Frequencies --    486.8854               531.6925               786.2480
 Red. masses --      2.0217                 3.5743                 3.6463
 Frc consts  --      0.2824                 0.5953                 1.3281
 IR Inten    --      0.3644                14.6849                 0.9243

                      7                      8                      9
                      A                      A                      A
 Frequencies --    895.0622               897.1703              1095.7547
 Red. masses --      1.5719                 1.2084                 1.5561
 Frc consts  --      0.7420                 0.5731                 1.1008
 IR Inten    --      6.6760                 0.0000                 0.0016

                     10                     11                     12
                      A                      A                      A
 Frequencies --   1131.0191              1245.4263              1411.2075
 Red. masses --      1.9449                 2.7953                 1.2284
 Frc consts  --      1.4659                 2.5545                 1.4414
 IR Inten    --      4.2381                78.9547                14.8961

                     13                     14                     15
                      A                      A                      A
 Frequencies --   1413.1116              1490.5271              1495.0652
 Red. masses --      1.4092                 1.0424                 1.0528
 Frc consts  --      1.6580                 1.3645                 1.3865
 IR Inten    --     52.9491                 0.2769                 0.0000

                     16                     17                     18
                      A                      A                      A
 Frequencies --   1499.0424              1516.3471              1823.6594
 Red. masses --      1.0638                 1.0446                 9.6851
 Frc consts  --      1.4085                 1.4151                18.9777
 IR Inten    --     23.3269                19.2201               151.7950

                     19                     20                     21
                      A                      A                      A
 Frequencies --   3044.3844              3051.3436              3100.6548
 Red. masses --      1.0382                 1.0380                 1.0993
 Frc consts  --      5.6691                 5.6940                 6.2271
 IR Inten    --      1.5177                 7.4727                 0.0000

                     22                     23                     24
                      A                      A                      A
 Frequencies --   3107.8735              3165.6594              3166.4263
 Red. masses --      1.0996                 1.1014                 1.1018
 Frc consts  --      6.2576                 6.5031                 6.5089
 IR Inten    --     23.5867                11.7958                 9.2489

 - Thermochemistry -
 -------------------
 Temperature     0.001 Kelvin.  Pressure   1.00000 Atm.
 Atom     1 has atomic number  6 and mass  12.00000

 Molecular mass:    58.04186 amu.
 Principal axes and moments of inertia in atomic units:
                           1         2         3
     Eigenvalues --   178.82407 213.61065 370.08916
           X            1.00000  -0.00000   0.00000
           Y            0.00000   1.00000   0.00000
           Z           -0.00000  -0.00000   1.00000
 This molecule is an asymmetric top.
 Rotational symmetry number  1.
 Rotational temperatures (Kelvin)      0.48435     0.40548     0.23404
 Rotational constants (GHZ):          10.09227     8.44874     4.87650
 Zero-point vibrational energy     220825.3 (Joules/Mol)
                                   52.77850 (Kcal/Mol)
 Vibrational temperatures:     72.61   197.65   541.99   700.52   764.99
          (Kelvin)           1131.24  1287.79  1290.83  1576.55  1627.28
                             1791.89  2030.41  2033.15  2144.54  2151.07
                             2156.79  2181.69  2623.84  4380.19  4390.20
                             4461.15  4471.54  4554.68  4555.78

 Zero-point correction=                           0.084108 (Hartree/Particle)
 Thermal correction to Energy=                    0.084108
 Thermal correction to Enthalpy=                  0.084108
 Thermal correction to Gibbs Free Energy=         0.084108
 Sum of electronic and zero-point Energies=           -193.071585
 Sum of electronic and thermal Energies=              -193.071585
 Sum of electronic and thermal Enthalpies=            -193.071585
 Sum of electronic and thermal Free Energies=         -193.071585

                     E (Thermal)             CV                S
                      KCal/Mol        Cal/Mol-Kelvin    Cal/Mol-Kelvin
 Total                   52.779              5.962            -37.939
 Electronic               0.000              0.000              0.000
 Translational            0.000              2.981            -24.527
 Rotational               0.000              2.981            -13.412
 Vibrational             52.779              0.000              0.000

 Optimization completed.
    -- Stationary point found.
 Normal termination of Gaussian 16 at Mon Oct 14 00:43:41 2019.
