 Gaussian 16, Revision A.03,
 Gaussian 16:  ES64L-G16RevA.03 25-Dec-2016

 --------------------------------------------------------------
 #P opt freq b3lyp/6-31g(d) geom=connectivity temperature=0.001
 --------------------------------------------------------------

 -------------------
 Title Card Required
 -------------------
 Symbolic Z-matrix:
 Charge =  1 Multiplicity = 1

 SCF Done:  E(RB3LYP) =  -193.471871415     A.U. after   13 cycles
 SCF Done:  E(RB3LYP) =  -193.477699430     A.U. after   11 cycles
 SCF Done:  E(RB3LYP) =  -193.478483303     A.U. after   11 cycles
 SCF Done:  E(RB3LYP) =  -193.478597936     A.U. after   10 cycles
 SCF Done:  E(RB3LYP) =  -193.478736368     A.U. after   10 cycles
 SCF Done:  E(RB3LYP) =  -193.478835049     A.U. after   10 cycles
 SCF Done:  E(RB3LYP) =  -193.479050395     A.U. after   10 cycles
 SCF Done:  E(RB3LYP) =  -193.479301933     A.U. after   11 cycles
 SCF Done:  E(RB3LYP) =  -193.479317498     A.U. after    8 cycles
 SCF Done:  E(RB3LYP) =  -193.479321621     A.U. after    8 cycles
 SCF Done:  E(RB3LYP) =  -193.479325947     A.U. after    9 cycles
 SCF Done:  E(RB3LYP) =  -193.479329462     A.U. after    9 cycles
 SCF Done:  E(RB3LYP) =  -193.479332403     A.U. after    8 cycles
 SCF Done:  E(RB3LYP) =  -193.479332976     A.U. after    7 cycles
 SCF Done:  E(RB3LYP) =  -193.479333023     A.U. after    7 cycles
 Optimization completed.
    -- Stationary point found.
 Normal termination of Gaussian 16 at Mon Oct 14 00:44:37 2019.

 --------------------------------------------------------------------
 #P Geom=AllCheck Guess=TCheck SCRF=Check GenChk RB3LYP/6-31G(d) Freq
 --------------------------------------------------------------------

 Structure from the checkpoint file:  "16_p.chk"
 -------------------
 Title Card Required
 -------------------
 Charge =  1 Multiplicity = 1

                         Standard orientation:
 ---------------------------------------------------------------------
 Center     Atomic      Atomic             Coordinates (Angstroms)
 Number     Number       Type             X           Y           Z
 ---------------------------------------------------------------------
      1          6           0       -1.347824   -0.547054   -0.007274
      2          6           0       -0.004746    0.059766   -0.000562
      3          6           0        1.237269   -0.741843    0.005817
      4          8           0        0.022371    1.340897   -0.004412
      5          1           0       -1.564674   -0.876049    1.023279
      6          1           0       -2.114057    0.167813   -0.312795
      7          1           0       -1.364945   -1.449236   -0.627831
      8          1           0        1.130298   -1.606954    0.669918
      9          1           0        1.374703   -1.151116   -1.008623
     10          1           0        2.126128   -0.164014    0.274979
     11          1           0        0.925383    1.727161    0.028479
 ---------------------------------------------------------------------

 SCF Done:  E(RB3LYP) =  -193.479333023     A.U. after    1 cycles

 The electronic state is 1-A.
 Alpha  occ. eigenvalues --  -19.47935 -10.56765 -10.41862 -10.40518  -1.37008
 Alpha  occ. eigenvalues --   -1.03241  -0.95065  -0.87494  -0.74779  -0.71119
 Alpha  occ. eigenvalues --   -0.70781  -0.63087  -0.62069  -0.61098  -0.60824
 Alpha  occ. eigenvalues --   -0.59685
 Alpha virt. eigenvalues --   -0.29833  -0.15811  -0.08459  -0.07194  -0.04292
 Alpha virt. eigenvalues --   -0.03765  -0.02797  -0.00455  -0.00238   0.06316
 Alpha virt. eigenvalues --    0.12573   0.28276   0.30640   0.33361   0.34500

 Mulliken charges:
               1
     1  C   -0.544843
     2  C    0.480366
     3  C   -0.559723
     4  O   -0.415187
     5  H    0.269092
     6  H    0.260954
     7  H    0.252313
     8  H    0.266237
     9  H    0.276803
    10  H    0.230307
    11  H    0.483681
 Sum of Mulliken charges =   1.00000

 Dipole moment (field-independent basis, Debye):
    X=              1.5707    Y=             -0.3480    Z=              0.0747  Tot=              1.6105
 Quadrupole moment (field-independent basis, Debye-Ang):
   XX=            -14.9273   YY=            -16.7467   ZZ=            -21.9255
   XY=              3.1486   XZ=             -0.3029   YZ=              0.1160

  Exact polarizability:  38.045   1.521  37.455  -0.531   0.050  24.841
 Approx polarizability:  47.391   1.926  55.480  -1.279   0.014  35.052

                      1                      2                      3
                      A                      A                      A
 Frequencies --     98.4624               122.3135               393.6708
 Red. masses --      1.1072                 1.0171                 2.2170
 Frc consts  --      0.0063                 0.0090                 0.2024
 IR Inten    --      2.6956                 1.1118                 0.0264

                      4                      5                      6
                      A                      A                      A
 Frequencies --    481.9970               512.5240               728.7695
 Red. masses --      1.9302                 2.7232                 1.1264
 Frc consts  --      0.2642                 0.4215                 0.3525
 IR Inten    --      3.6492                12.9179                98.6803

                      7                      8                      9
                      A                      A                      A
 Frequencies --    832.5967               940.6630               958.0019
 Red. masses --      3.2845                 1.2857                 1.4675
 Frc consts  --      1.3415                 0.6703                 0.7935
 IR Inten    --      8.5004                25.4076                15.5207

                     10                     11                     12
                      A                      A                      A
 Frequencies --   1087.4682              1108.4022              1167.7235
 Red. masses --      1.5382                 1.9309                 1.4812
 Frc consts  --      1.0718                 1.3977                 1.1900
 IR Inten    --      0.4178                38.4625               107.2334

                     13                     14                     15
                      A                      A                      A
 Frequencies --   1389.2160              1401.8355              1434.2137
 Red. masses --      1.1662                 1.1734                 1.1262
 Frc consts  --      1.3260                 1.3586                 1.3649
 IR Inten    --     27.0757                90.0993                68.3202

                     16                     17                     18
                      A                      A                      A
 Frequencies --   1449.5005              1465.2244              1488.5591
 Red. masses --      1.3285                 1.2154                 1.2269
 Frc consts  --      1.6446                 1.5373                 1.6018
 IR Inten    --    114.0967                32.7509                51.0988

                     19                     20                     21
                      A                      A                      A
 Frequencies --   1504.4643              1614.5007              3024.0061
 Red. masses --      1.3819                 3.6343                 1.0503
 Frc consts  --      1.8429                 5.5815                 5.6588
 IR Inten    --     76.4364                96.0297                52.2549

                     22                     23                     24
                      A                      A                      A
 Frequencies --   3033.4937              3107.8756              3115.3284
 Red. masses --      1.0509                 1.0838                 1.0807
 Frc consts  --      5.6974                 6.1678                 6.1797
 IR Inten    --     21.4671                 7.1100                12.2321

                     25                     26                     27
                      A                      A                      A
 Frequencies --   3160.0768              3186.9680              3599.6233
 Red. masses --      1.1072                 1.1061                 1.0667
 Frc consts  --      6.5145                 6.6191                 8.1431
 IR Inten    --      3.2084                 5.4426               168.5971

 - Thermochemistry -
 -------------------
 Temperature     0.001 Kelvin.  Pressure   1.00000 Atm.
 Atom     1 has atomic number  6 and mass  12.00000

 Molecular mass:    59.04969 amu.
 Principal axes and moments of inertia in atomic units:
                           1         2         3
     Eigenvalues --   184.74735 217.16921 379.72702
           X            0.99598   0.08957  -0.00182
           Y           -0.08957   0.99598   0.00099
           Z            0.00190  -0.00082   1.00000
 This molecule is an asymmetric top.
 Rotational symmetry number  1.
 Rotational temperatures (Kelvin)      0.46882     0.39883     0.22810
 Rotational constants (GHZ):           9.76870     8.31030     4.75273
 Zero-point vibrational energy     253653.1 (Joules/Mol)
                                   60.62453 (Kcal/Mol)
 Vibrational temperatures:    141.67   175.98   566.40   693.49   737.41
          (Kelvin)           1048.54  1197.92  1353.40  1378.35  1564.62
                             1594.74  1680.09  1998.77  2016.93  2063.51
                             2085.51  2108.13  2141.70  2164.59  2322.91
                             4350.87  4364.52  4471.54  4482.26  4546.65
                             4585.34  5179.06

 Zero-point correction=                           0.096611 (Hartree/Particle)
 Thermal correction to Energy=                    0.096611
 Thermal correction to Enthalpy=                  0.096611
 Thermal correction to Gibbs Free Energy=         0.096611
 Sum of electronic and zero-point Energies=           -193.382722
 Sum of electronic and thermal Energies=              -193.382722
 Sum of electronic and thermal Enthalpies=            -193.382722
 Sum of electronic and thermal Free Energies=         -193.382722

                     E (Thermal)             CV                S
                      KCal/Mol        Cal/Mol-Kelvin    Cal/Mol-Kelvin
 Total                   60.625              5.962            -37.814
 Electronic               0.000              0.000              0.000
 Translational            0.000              2.981            -24.476
 Rotational               0.000              2.981            -13.338
 Vibrational             60.625              0.000              0.000

 Optimization completed.
    -- Stationary point found.
 Normal termination of Gaussian 16 at Mon Oct 14 00:44:43 2019.
