 Gaussian 16, Revision A.03,
 Gaussian 16:  ES64L-G16RevA.03 25-Dec-2016

 --------------------------------------------------------------
 #P opt freq b3lyp/6-31g(d) geom=connectivity temperature=0.001
 --------------------------------------------------------------

 -------------------
 Title Card Required
 -------------------
 Symbolic Z-matrix:
 Charge =  0 Multiplicity = 1

 SCF Done:  E(RB3LYP) =  -897.292216123     A.U. after   14 cycles
 SCF Done:  E(RB3LYP) =  -897.331394591     A.U. after   11 cycles
 SCF Done:  E(RB3LYP) =  -897.363586047     A.U. after   12 cycles
 SCF Done:  E(RB3LYP) =  -897.378049841     A.U. after   11 cycles
 SCF Done:  E(RB3LYP) =  -897.381558648     A.U. after   10 cycles
 SCF Done:  E(RB3LYP) =  -897.384164480     A.U. after   11 cycles
 SCF Done:  E(RB3LYP) =  -897.388661083     A.U. after   13 cycles
 SCF Done:  E(RB3LYP) =  -897.391653231     A.U. after   10 cycles
 SCF Done:  E(RB3LYP) =  -897.393494058     A.U. after   11 cycles
 SCF Done:  E(RB3LYP) =  -897.393574578     A.U. after   11 cycles
 SCF Done:  E(RB3LYP) =  -897.393881614     A.U. after   11 cycles
 SCF Done:  E(RB3LYP) =  -897.393955743     A.U. after    9 cycles
 SCF Done:  E(RB3LYP) =  -897.394005051     A.U. after   10 cycles
 SCF Done:  E(RB3LYP) =  -897.394032858     A.U. after   10 cycles
 SCF Done:  E(RB3LYP) =  -897.394037397     A.U. after    9 cycles
 SCF Done:  E(RB3LYP) =  -897.394038252     A.U. after    7 cycles
 SCF Done:  E(RB3LYP) =  -897.394038364     A.U. after    6 cycles
 SCF Done:  E(RB3LYP) =  -897.394038494     A.U. after    7 cycles
 Optimization completed.
    -- Stationary point found.
 Normal termination of Gaussian 16 at Mon Oct 14 00:48:39 2019.

 --------------------------------------------------------------------
 #P Geom=AllCheck Guess=TCheck SCRF=Check GenChk RB3LYP/6-31G(d) Freq
 --------------------------------------------------------------------

 Structure from the checkpoint file:  "17.chk"
 -------------------
 Title Card Required
 -------------------
 Charge =  0 Multiplicity = 1

                         Standard orientation:
 ---------------------------------------------------------------------
 Center     Atomic      Atomic             Coordinates (Angstroms)
 Number     Number       Type             X           Y           Z
 ---------------------------------------------------------------------
      1          8           0       -9.771280   -1.508976   -0.557814
      2          6           0       -9.381876   -0.439347   -0.153678
      3          8           0      -10.067961    0.678644   -0.524184
      4          6           0       -9.689025    1.977843   -0.068149
      5          6           0       -8.125600   -0.300539    0.694766
      6          6           0       -6.862120   -0.259299   -0.191925
      7          6           0       -5.565641   -0.229556    0.626567
      8          6           0       -4.302051   -0.202672   -0.243314
      9          6           0       -3.001669   -0.177049    0.570502
     10          6           0       -1.737032   -0.149871   -0.297686
     11          6           0       -0.436198   -0.124358    0.515316
     12          6           0        0.828769   -0.096939   -0.352393
     13          6           0        2.129728   -0.071221    0.460415
     14          6           0        3.394830   -0.043594   -0.407097
     15          6           0        4.695819   -0.017753    0.405665
     16          6           0        5.960974    0.010030   -0.461761
     17          6           0        7.261961    0.035843    0.350995
     18          6           0        8.527150    0.063752   -0.516365
     19          6           0        9.828213    0.089407    0.295944
     20          6           0       11.093601    0.117473   -0.571014
     21          6           0       12.388062    0.142770    0.248231
     22          1           0       -9.831984    2.084347    1.013256
     23          1           0       -8.652557    2.219293   -0.327487
     24          1           0      -10.354543    2.673134   -0.583154
     25          1           0       -8.153904    0.574780    1.351501
     26          1           0       -8.089636   -1.190926    1.329639
     27          1           0       -6.872383   -1.140068   -0.845993
     28          1           0       -6.898573    0.617751   -0.853688
     29          1           0       -5.570853    0.648893    1.288991
     30          1           0       -5.535746   -1.108627    1.286605
     31          1           0       -4.299810   -1.080666   -0.905577
     32          1           0       -4.334388    0.676085   -0.904453
     33          1           0       -3.005563    0.700573    1.234090
     34          1           0       -2.969899   -1.056163    1.231060
     35          1           0       -1.733585   -1.027489   -0.961017
     36          1           0       -1.769364    0.729028   -0.958738
     37          1           0       -0.440122    0.753140    1.179082
     38          1           0       -0.404083   -1.003403    1.176144
     39          1           0        0.832624   -0.974494   -1.015958
     40          1           0        0.796393    0.781962   -1.013481
     41          1           0        2.125645    0.806260    1.124203
     42          1           0        2.162037   -0.950214    1.121362
     43          1           0        3.398897   -0.921102   -1.070778
     44          1           0        3.362398    0.835331   -1.068167
     45          1           0        4.691631    0.859701    1.069485
     46          1           0        4.728234   -0.896746    1.066630
     47          1           0        5.965129   -0.867409   -1.125560
     48          1           0        5.928528    0.889021   -1.122749
     49          1           0        7.257743    0.913227    1.014895
     50          1           0        7.294416   -0.843206    1.011885
     51          1           0        8.531286   -0.813603   -1.180330
     52          1           0        8.494700    0.942879   -1.177219
     53          1           0        9.825164    0.966739    0.960148
     54          1           0        9.861832   -0.789791    0.956815
     55          1           0       11.097203   -0.759313   -1.234270
     56          1           0       11.060677    0.996310   -1.230752
     57          1           0       12.466818   -0.741743    0.892448
     58          1           0       13.272280    0.162585   -0.399190
     59          1           0       12.429908    1.027083    0.896181
 ---------------------------------------------------------------------

 SCF Done:  E(RB3LYP) =  -897.394038494     A.U. after    1 cycles

 The electronic state is 1-A.
 Alpha  occ. eigenvalues --  -19.18609 -19.12308 -10.30946 -10.25103 -10.20184
 Alpha  occ. eigenvalues --  -10.19691 -10.18829 -10.18345 -10.18084 -10.17874
 Alpha  occ. eigenvalues --  -10.17751 -10.17651 -10.17648 -10.17588 -10.17536
 Alpha  occ. eigenvalues --  -10.17503 -10.17477 -10.17459 -10.17442 -10.17420
 Alpha  occ. eigenvalues --  -10.17046  -1.08982  -1.00881  -0.81813  -0.80943
 Alpha  occ. eigenvalues --   -0.80083  -0.78801  -0.77147  -0.75156  -0.73081
 Alpha  occ. eigenvalues --   -0.72554  -0.70176  -0.67374  -0.64458  -0.61645
 Alpha  occ. eigenvalues --   -0.59350  -0.58247  -0.57596  -0.57394  -0.56895
 Alpha  occ. eigenvalues --   -0.56709  -0.56603  -0.50326  -0.49214  -0.48405
 Alpha  occ. eigenvalues --   -0.48025  -0.47766  -0.46919  -0.45814  -0.44435
 Alpha  occ. eigenvalues --   -0.43236  -0.42899  -0.42768  -0.42325  -0.41635
 Alpha  occ. eigenvalues --   -0.41005  -0.40991  -0.40586  -0.39405  -0.39169
 Alpha  occ. eigenvalues --   -0.38657  -0.37482  -0.37332  -0.36762  -0.35811
 Alpha  occ. eigenvalues --   -0.35536  -0.34734  -0.34394  -0.33997  -0.33543
 Alpha  occ. eigenvalues --   -0.33377  -0.33186  -0.32743  -0.32599  -0.32253
 Alpha  occ. eigenvalues --   -0.32122  -0.31949  -0.31814  -0.31758  -0.31698
 Alpha  occ. eigenvalues --   -0.30928  -0.28962  -0.28562  -0.25897
 Alpha virt. eigenvalues --    0.01141   0.07085   0.08648   0.09045   0.09571
 Alpha virt. eigenvalues --    0.10208   0.10489   0.11021   0.11145   0.11316
 Alpha virt. eigenvalues --    0.11862   0.12067   0.12381   0.12789   0.13270

 Mulliken charges:
               1
     1  O   -0.447808
     2  C    0.592352
     3  O   -0.431793
     4  C   -0.227084
     5  C   -0.360020
     6  C   -0.268452
     7  C   -0.253811
     8  C   -0.254626
     9  C   -0.253392
    10  C   -0.253029
    11  C   -0.252645
    12  C   -0.252479
    13  C   -0.252331
    14  C   -0.252288
    15  C   -0.252221
    16  C   -0.252261
    17  C   -0.252456
    18  C   -0.252124
    19  C   -0.245298
    20  C   -0.246445
    21  C   -0.441214
    22  H    0.159722
    23  H    0.157786
    24  H    0.179575
    25  H    0.143357
    26  H    0.175684
    27  H    0.163636
    28  H    0.137755
    29  H    0.127570
    30  H    0.135931
    31  H    0.133735
    32  H    0.127941
    33  H    0.126421
    34  H    0.129148
    35  H    0.128745
    36  H    0.126798
    37  H    0.126116
    38  H    0.127288
    39  H    0.127249
    40  H    0.126363
    41  H    0.126033
    42  H    0.126640
    43  H    0.126676
    44  H    0.126197
    45  H    0.126031
    46  H    0.126385
    47  H    0.126435
    48  H    0.126147
    49  H    0.126106
    50  H    0.126329
    51  H    0.126293
    52  H    0.126106
    53  H    0.125702
    54  H    0.125854
    55  H    0.129605
    56  H    0.129472
    57  H    0.140848
    58  H    0.141011
    59  H    0.140734
 Sum of Mulliken charges =  -0.00000

 Dipole moment (field-independent basis, Debye):
    X=              2.5548    Y=              3.1922    Z=              1.6553  Tot=              4.4110
 Quadrupole moment (field-independent basis, Debye-Ang):
   XX=           -181.9280   YY=           -133.6971   ZZ=           -137.3580
   XY=            -32.6579   XZ=            -17.5318   YZ=             -1.6446

  Exact polarizability: 279.917  -1.370 186.741   2.063   1.245 174.893
 Approx polarizability: 273.289   1.454 295.059   3.731   4.279 263.941

                      1                      2                      3
                      A                      A                      A
 Frequencies --      8.6002                14.1199                20.0261
 Red. masses --      4.5494                 4.6696                 1.9835
 Frc consts  --      0.0002                 0.0005                 0.0005
 IR Inten    --      0.3121                 0.2420                 1.4521

                      4                      5                      6
                      A                      A                      A
 Frequencies --     22.6033                37.5285                39.7523
 Red. masses --      3.9094                 3.6255                 4.4789
 Frc consts  --      0.0012                 0.0030                 0.0042
 IR Inten    --      1.0576                 1.3724                 1.0648

                      7                      8                      9
                      A                      A                      A
 Frequencies --     48.5189                58.0827                75.9823
 Red. masses --      1.6541                 3.2752                 4.2634
 Frc consts  --      0.0023                 0.0065                 0.0145
 IR Inten    --      0.3025                 0.5935                 1.4191

                     10                     11                     12
                      A                      A                      A
 Frequencies --     77.9446                85.2820               104.7752
 Red. masses --      1.6443                 2.9060                 2.9719
 Frc consts  --      0.0059                 0.0125                 0.0192
 IR Inten    --      0.1144                 0.1747                 0.5462

                     13                     14                     15
                      A                      A                      A
 Frequencies --    107.4767               113.5481               121.4294
 Red. masses --      2.2341                 2.5893                 3.1038
 Frc consts  --      0.0152                 0.0197                 0.0270
 IR Inten    --      0.4080                 0.2102                 2.3160

                     16                     17                     18
                      A                      A                      A
 Frequencies --    133.5504               133.9124               142.9290
 Red. masses --      2.1705                 2.5739                 2.3415
 Frc consts  --      0.0228                 0.0272                 0.0282
 IR Inten    --      0.0981                 0.0421                 0.2880

                     19                     20                     21
                      A                      A                      A
 Frequencies --    156.3909               161.9971               172.4257
 Red. masses --      1.8823                 2.0946                 2.0536
 Frc consts  --      0.0271                 0.0324                 0.0360
 IR Inten    --      0.0317                 0.0858                 0.0511

                     22                     23                     24
                      A                      A                      A
 Frequencies --    174.1648               174.7689               201.2863
 Red. masses --      2.3688                 2.8442                 1.1354
 Frc consts  --      0.0423                 0.0512                 0.0271
 IR Inten    --      0.3426                 0.3740                 0.7919

                     25                     26                     27
                      A                      A                      A
 Frequencies --    215.5084               248.7761               249.6664
 Red. masses --      4.0491                 3.5720                 1.1203
 Frc consts  --      0.1108                 0.1302                 0.0411
 IR Inten    --      0.4136                 0.6249                 0.0013

                     28                     29                     30
                      A                      A                      A
 Frequencies --    297.7913               318.6746               346.2284
 Red. masses --      3.7147                 3.0703                 3.1600
 Frc consts  --      0.1941                 0.1837                 0.2232
 IR Inten    --      0.4642                 0.1959                 0.3252

                     31                     32                     33
                      A                      A                      A
 Frequencies --    383.0624               410.9100               458.4839
 Red. masses --      3.4864                 3.2755                 3.2672
 Frc consts  --      0.3014                 0.3258                 0.4046
 IR Inten    --      0.6392                 0.6051                 0.2382

                     34                     35                     36
                      A                      A                      A
 Frequencies --    474.0493               482.5118               514.0148
 Red. masses --      3.1071                 2.9709                 3.0443
 Frc consts  --      0.4114                 0.4075                 0.4739
 IR Inten    --      0.3006                 1.6518                 0.2636

                     37                     38                     39
                      A                      A                      A
 Frequencies --    519.1697               594.8192               715.6330
 Red. masses --      2.9814                 5.6057                 5.8406
 Frc consts  --      0.4735                 1.1686                 1.7623
 IR Inten    --      0.1575                13.0516                 5.5265

                     40                     41                     42
                      A                      A                      A
 Frequencies --    737.7019               737.9006               738.4307
 Red. masses --      1.0605                 1.0604                 1.0592
 Frc consts  --      0.3400                 0.3402                 0.3403
 IR Inten    --      0.1220                 1.5856                 9.4589

                     43                     44                     45
                      A                      A                      A
 Frequencies --    740.0807               744.6892               753.9219
 Red. masses --      1.0728                 1.0905                 1.1157
 Frc consts  --      0.3462                 0.3563                 0.3736
 IR Inten    --      0.1795                 0.8376                 0.0990

                     46                     47                     48
                      A                      A                      A
 Frequencies --    769.3960               791.7180               818.3781
 Red. masses --      1.1503                 1.2027                 1.4676
 Frc consts  --      0.4012                 0.4442                 0.5791
 IR Inten    --      0.1035                 1.0022                 3.1034

                     49                     50                     51
                      A                      A                      A
 Frequencies --    834.0983               859.9492               897.1591
 Red. masses --      2.3453                 1.3227                 1.2754
 Frc consts  --      0.9613                 0.5763                 0.6049
 IR Inten    --      8.0928                 0.2977                 0.0025

                     52                     53                     54
                      A                      A                      A
 Frequencies --    904.4571               936.6849               976.0218
 Red. masses --      1.9750                 1.2650                 1.2539
 Frc consts  --      0.9519                 0.6539                 0.7038
 IR Inten    --      1.4928                 1.0002                 0.8490

                     55                     56                     57
                      A                      A                      A
 Frequencies --    983.7931               986.6310              1006.2140
 Red. masses --      5.3413                 5.0331                 4.4119
 Frc consts  --      3.0458                 2.8866                 2.6318
 IR Inten    --      0.1133                 0.1065                 1.4368

                     58                     59                     60
                      A                      A                      A
 Frequencies --   1007.5340              1013.7178              1029.5194
 Red. masses --      3.9669                 1.2369                 3.5716
 Frc consts  --      2.3726                 0.7489                 2.2304
 IR Inten    --      0.3772                 2.6194                 0.0079

                     61                     62                     63
                      A                      A                      A
 Frequencies --   1040.6571              1046.5177              1048.6252
 Red. masses --      3.6337                 1.2658                 2.5663
 Frc consts  --      2.3185                 0.8168                 1.6626
 IR Inten    --      2.6856                 2.5509                 0.4957

                     64                     65                     66
                      A                      A                      A
 Frequencies --   1061.6638              1070.0307              1071.6254
 Red. masses --      2.7752                 2.4282                 1.3308
 Frc consts  --      1.8430                 1.6380                 0.9004
 IR Inten    --      0.5001                 0.0618                 8.2362

                     67                     68                     69
                      A                      A                      A
 Frequencies --   1071.7752              1072.8223              1074.8870
 Red. masses --      2.0781                 1.7614                 2.2709
 Frc consts  --      1.4065                 1.1944                 1.5459
 IR Inten    --      0.5177                 0.2132                 0.2532

                     70                     71                     72
                      A                      A                      A
 Frequencies --   1075.2594              1082.2603              1091.4380
 Red. masses --      2.2710                 2.6931                 2.4371
 Frc consts  --      1.5470                 1.8585                 1.7105
 IR Inten    --      0.1338                19.9502                35.5609

                     73                     74                     75
                      A                      A                      A
 Frequencies --   1118.4661              1122.6179              1152.3040
 Red. masses --      2.5539                 3.1869                 2.9969
 Frc consts  --      1.8823                 2.3663                 2.3445
 IR Inten    --     85.7283                 1.8459                 2.1061

                     76                     77                     78
                      A                      A                      A
 Frequencies --   1177.8760              1199.1650              1220.5170
 Red. masses --      1.2652                 1.5424                 1.9357
 Frc consts  --      1.0342                 1.3068                 1.6989
 IR Inten    --      0.4258                19.4043                 0.7433

                     79                     80                     81
                      A                      A                      A
 Frequencies --   1226.1615              1231.9025              1244.7629
 Red. masses --      1.2247                 1.7224                 1.4611
 Frc consts  --      1.0848                 1.5401                 1.3338
 IR Inten    --      3.8083                 8.4041                26.2643

                     82                     83                     84
                      A                      A                      A
 Frequencies --   1248.3261              1260.9830              1269.5765
 Red. masses --      1.4452                 1.5884                 1.3347
 Frc consts  --      1.3269                 1.4881                 1.2675
 IR Inten    --     18.2832                58.5829                 2.9475

                     85                     86                     87
                      A                      A                      A
 Frequencies --   1279.0433              1291.1295              1298.1076
 Red. masses --      1.4962                 1.3147                 1.4089
 Frc consts  --      1.4422                 1.2912                 1.3987
 IR Inten    --     42.4585                 3.5401                37.0140

                     88                     89                     90
                      A                      A                      A
 Frequencies --   1311.6817              1316.8924              1329.0883
 Red. masses --      1.2938                 1.3523                 1.2614
 Frc consts  --      1.3115                 1.3817                 1.3129
 IR Inten    --      0.6609                23.3407                 8.8722

                     91                     92                     93
                      A                      A                      A
 Frequencies --   1335.4263              1336.9831              1340.4112
 Red. masses --      1.2426                 1.0484                 1.0329
 Frc consts  --      1.3056                 1.1041                 1.0934
 IR Inten    --      9.3385                 3.1687                 0.1149

                     94                     95                     96
                      A                      A                      A
 Frequencies --   1342.4292              1345.7173              1349.0375
 Red. masses --      1.2230                 1.0496                 1.1258
 Frc consts  --      1.2985                 1.1199                 1.2071
 IR Inten    --     18.6062                 0.2411                 8.9638

                     97                     98                     99
                      A                      A                      A
 Frequencies --   1352.1130              1353.7198              1356.5670
 Red. masses --      1.1065                 1.1194                 1.1474
 Frc consts  --      1.1919                 1.2086                 1.2441
 IR Inten    --      0.2117                 0.1920                 2.1218

                    100                    101                    102
                      A                      A                      A
 Frequencies --   1356.8732              1358.6372              1375.3648
 Red. masses --      1.1239                 1.2872                 1.4048
 Frc consts  --      1.2191                 1.3999                 1.5656
 IR Inten    --      0.8861                25.0100                17.2192

                    103                    104                    105
                      A                      A                      A
 Frequencies --   1391.6144              1405.3391              1416.1871
 Red. masses --      1.4249                 1.4611                 1.5098
 Frc consts  --      1.6258                 1.7001                 1.7840
 IR Inten    --      3.8735                 3.9288                 0.1090

                    106                    107                    108
                      A                      A                      A
 Frequencies --   1423.3543              1424.9059              1426.1637
 Red. masses --      1.5831                 1.6656                 1.6496
 Frc consts  --      1.8897                 1.9925                 1.9768
 IR Inten    --      0.4120                 0.0392                 0.4761

                    109                    110                    111
                      A                      A                      A
 Frequencies --   1428.0243              1428.2505              1441.2817
 Red. masses --      1.6124                 1.6293                 1.2511
 Frc consts  --      1.9372                 1.9582                 1.5312
 IR Inten    --      0.0595                 0.0373                 0.9983

                    112                    113                    114
                      A                      A                      A
 Frequencies --   1503.9425              1511.9263              1512.0043
 Red. masses --      1.1812                 1.0772                 1.0767
 Frc consts  --      1.5741                 1.4508                 1.4503
 IR Inten    --     11.2559                 0.4780                 0.0522

                    115                    116                    117
                      A                      A                      A
 Frequencies --   1513.1207              1513.4904              1514.6045
 Red. masses --      1.0790                 1.0767                 1.0783
 Frc consts  --      1.4556                 1.4531                 1.4575
 IR Inten    --      3.2863                 0.1696                 6.2141

                    118                    119                    120
                      A                      A                      A
 Frequencies --   1515.6061              1516.2549              1517.5165
 Red. masses --      1.0779                 1.0736                 1.0705
 Frc consts  --      1.4588                 1.4542                 1.4525
 IR Inten    --      0.1860                 4.0230                 0.7775

                    121                    122                    123
                      A                      A                      A
 Frequencies --   1518.3916              1521.7440              1525.3697
 Red. masses --      1.0813                 1.0834                 1.0823
 Frc consts  --      1.4688                 1.4782                 1.4837
 IR Inten    --      0.4934                 1.8405                 1.2722

                    124                    125                    126
                      A                      A                      A
 Frequencies --   1528.9680              1529.8597              1531.6007
 Red. masses --      1.0811                 1.0411                 1.0513
 Frc consts  --      1.4891                 1.4356                 1.4530
 IR Inten    --      2.2269                 5.7794                 3.3923

                    127                    128                    129
                      A                      A                      A
 Frequencies --   1532.6986              1536.3670              1539.7231
 Red. masses --      1.0845                 1.0888                 1.0920
 Frc consts  --      1.5010                 1.5142                 1.5254
 IR Inten    --      0.6861                 1.8758                 0.3951

                    130                    131                    132
                      A                      A                      A
 Frequencies --   1542.5122              1544.6180              1545.9532
 Red. masses --      1.0947                 1.0968                 1.0983
 Frc consts  --      1.5346                 1.5418                 1.5465
 IR Inten    --      2.7493                 0.2123                 8.7134

                    133                    134                    135
                      A                      A                      A
 Frequencies --   1844.7124              3008.3938              3008.5764
 Red. masses --     11.7057                 1.0580                 1.0580
 Frc consts  --     23.4695                 5.6414                 5.6423
 IR Inten    --    289.0092                 0.1141                 0.0369

                    136                    137                    138
                      A                      A                      A
 Frequencies --   3009.5428              3010.0173              3011.4382
 Red. masses --      1.0582                 1.0581                 1.0586
 Frc consts  --      5.6473                 5.6482                 5.6564
 IR Inten    --      0.3155                 0.0653                 0.4934

                    139                    140                    141
                      A                      A                      A
 Frequencies --   3011.7540              3013.2728              3014.0958
 Red. masses --      1.0586                 1.0588                 1.0592
 Frc consts  --      5.6574                 5.6644                 5.6697
 IR Inten    --      0.0300                 0.0593                 0.2291

                    142                    143                    144
                      A                      A                      A
 Frequencies --   3015.2587              3017.8933              3021.2927
 Red. masses --      1.0593                 1.0600                 1.0603
 Frc consts  --      5.6746                 5.6881                 5.7026
 IR Inten    --      2.7481                 0.1432                 4.9763

                    145                    146                    147
                      A                      A                      A
 Frequencies --   3024.5263              3027.1136              3028.6221
 Red. masses --      1.0607                 1.0611                 1.0612
 Frc consts  --      5.7167                 5.7290                 5.7351
 IR Inten    --      0.5014                14.8267               322.9149

                    148                    149                    150
                      A                      A                      A
 Frequencies --   3029.5353              3029.8488              3030.6905
 Red. masses --      1.0990                 1.0987                 1.0986
 Frc consts  --      5.9429                 5.9424                 5.9452
 IR Inten    --      1.4273                 5.8422                 3.2037

                    151                    152                    153
                      A                      A                      A
 Frequencies --   3031.4978              3032.4670              3034.9156
 Red. masses --      1.0807                 1.0938                 1.0976
 Frc consts  --      5.8513                 5.9265                 5.9563
 IR Inten    --     39.4407                26.7339                13.3928

                    154                    155                    156
                      A                      A                      A
 Frequencies --   3038.2676              3040.6031              3042.2755
 Red. masses --      1.0990                 1.0358                 1.1003
 Frc consts  --      5.9775                 5.6424                 6.0000
 IR Inten    --      8.2600                44.2993                 5.6419

                    157                    158                    159
                      A                      A                      A
 Frequencies --   3046.9815              3047.5834              3052.8507
 Red. masses --      1.0947                 1.0414                 1.1045
 Frc consts  --      5.9880                 5.6987                 6.0650
 IR Inten    --      3.9764                25.5354                 0.8698

                    160                    161                    162
                      A                      A                      A
 Frequencies --   3058.8353              3064.5763              3069.8352
 Red. masses --      1.1052                 1.1054                 1.1051
 Frc consts  --      6.0929                 6.1167                 6.1360
 IR Inten    --      3.5566                 0.2054                19.0166

                    163                    164                    165
                      A                      A                      A
 Frequencies --   3074.3275              3077.3176              3078.3552
 Red. masses --      1.1035                 1.0847                 1.0854
 Frc consts  --      6.1452                 6.0522                 6.0599
 IR Inten    --      2.6017               151.8286               212.3954

                    166                    167                    168
                      A                      A                      A
 Frequencies --   3085.6913              3105.1596              3109.8019
 Red. masses --      1.0968                 1.1028                 1.1019
 Frc consts  --      6.1527                 6.2650                 6.2784
 IR Inten    --     83.2353                70.1944                45.6824

                    169                    170                    171
                      A                      A                      A
 Frequencies --   3116.2122              3125.4948              3159.4546
 Red. masses --      1.1073                 1.1053                 1.1022
 Frc consts  --      6.3351                 6.3616                 6.4826
 IR Inten    --     35.6226                33.0527                23.5380

 - Thermochemistry -
 -------------------
 Temperature     0.001 Kelvin.  Pressure   1.00000 Atm.
 Atom     1 has atomic number  8 and mass  15.99491

 Molecular mass:   298.28718 amu.
 Principal axes and moments of inertia in atomic units:
                           1         2         3
     Eigenvalues --   836.69451********************
           X            1.00000  -0.00259  -0.00155
           Y            0.00256   0.99978  -0.02075
           Z            0.00161   0.02074   0.99978
 This molecule is an asymmetric top.
 Rotational symmetry number  1.
 Warning -- assumption of classical behavior for rotation
           may cause significant error
 Rotational temperatures (Kelvin)      0.10352     0.00148     0.00148
 Rotational constants (GHZ):           2.15699     0.03090     0.03081
 Zero-point vibrational energy    1439372.7 (Joules/Mol)
                                  344.01832 (Kcal/Mol)
 Vibrational temperatures:     12.37    20.32    28.81    32.52    54.00
          (Kelvin)             57.19    69.81    83.57   109.32   112.14
                              122.70   150.75   154.64   163.37   174.71
                              192.15   192.67   205.64   225.01   233.08
                              248.08   250.58   251.45   289.61   310.07
                              357.93   359.21   428.46   458.50   498.15
                              551.14   591.21   659.66   682.05   694.23
                              739.55   746.97   855.81  1029.64  1061.39
                             1061.67  1062.44  1064.81  1071.44  1084.73
                             1106.99  1139.11  1177.46  1200.08  1237.28
                             1290.81  1301.31  1347.68  1404.28  1415.46
                             1419.54  1447.72  1449.62  1458.51  1481.25
                             1497.27  1505.71  1508.74  1527.50  1539.54
                             1541.83  1542.05  1543.55  1546.52  1547.06
                             1557.13  1570.34  1609.22  1615.20  1657.91
                             1694.70  1725.33  1756.05  1764.17  1772.43
                             1790.94  1796.06  1814.27  1826.64  1840.26
                             1857.65  1867.69  1887.22  1894.71  1912.26
                             1921.38  1923.62  1928.55  1931.46  1936.19
                             1940.96  1945.39  1947.70  1951.80  1952.24
                             1954.78  1978.84  2002.22  2021.97  2037.58
                             2047.89  2050.12  2051.93  2054.61  2054.93
                             2073.68  2163.84  2175.32  2175.44  2177.04
                             2177.58  2179.18  2180.62  2181.55  2183.37
                             2184.63  2189.45  2194.67  2199.84  2201.13
                             2203.63  2205.21  2210.49  2215.32  2219.33
                             2222.36  2224.28  2654.13  4328.41  4328.67
                             4330.06  4330.74  4332.79  4333.24  4335.43
                             4336.61  4338.28  4342.08  4346.97  4351.62
                             4355.34  4357.51  4358.83  4359.28  4360.49
                             4361.65  4363.04  4366.57  4371.39  4374.75
                             4377.16  4383.93  4384.79  4392.37  4400.98
                             4409.24  4416.81  4423.27  4427.57  4429.07
                             4439.62  4467.63  4474.31  4483.53  4496.89
                             4545.75

 Zero-point correction=                           0.548228 (Hartree/Particle)
 Thermal correction to Energy=                    0.548228
 Thermal correction to Enthalpy=                  0.548228
 Thermal correction to Gibbs Free Energy=         0.548228
 Sum of electronic and zero-point Energies=           -896.845810
 Sum of electronic and thermal Energies=              -896.845810
 Sum of electronic and thermal Enthalpies=            -896.845810
 Sum of electronic and thermal Free Energies=         -896.845810

                     E (Thermal)             CV                S
                      KCal/Mol        Cal/Mol-Kelvin    Cal/Mol-Kelvin
 Total                  344.018              5.962            -20.920
 Electronic               0.000              0.000              0.000
 Translational            0.000              2.981            -19.648
 Rotational               0.000              2.981             -1.272
 Vibrational            344.018              0.000              0.000

 Optimization completed.
    -- Stationary point found.
 Normal termination of Gaussian 16 at Mon Oct 14 00:51:40 2019.
