 Gaussian 16, Revision A.03,
 Gaussian 16:  ES64L-G16RevA.03 25-Dec-2016

 --------------------------------------------------------------
 #P opt freq b3lyp/6-31g(d) geom=connectivity temperature=0.001
 --------------------------------------------------------------

 -------------------
 Title Card Required
 -------------------
 Symbolic Z-matrix:
 Charge =  0 Multiplicity = 1

 SCF Done:  E(RB3LYP) =  -213.768903517     A.U. after   12 cycles
 SCF Done:  E(RB3LYP) =  -213.782947394     A.U. after   11 cycles
 SCF Done:  E(RB3LYP) =  -213.787958742     A.U. after   11 cycles
 SCF Done:  E(RB3LYP) =  -213.792107089     A.U. after   12 cycles
 SCF Done:  E(RB3LYP) =  -213.779152701     A.U. after   11 cycles
 SCF Done:  E(RB3LYP) =  -213.796419351     A.U. after   11 cycles
 SCF Done:  E(RB3LYP) =  -213.797152766     A.U. after   10 cycles
 SCF Done:  E(RB3LYP) =  -213.797309009     A.U. after   10 cycles
 SCF Done:  E(RB3LYP) =  -213.797362904     A.U. after   10 cycles
 SCF Done:  E(RB3LYP) =  -213.797375644     A.U. after    9 cycles
 SCF Done:  E(RB3LYP) =  -213.797380308     A.U. after    8 cycles
 SCF Done:  E(RB3LYP) =  -213.797381526     A.U. after    7 cycles
 SCF Done:  E(RB3LYP) =  -213.797381698     A.U. after    7 cycles
 Optimization completed.
    -- Stationary point found.

 1\1\GINC-BROWN-A185\FOpt\RB3LYP\6-31G(d)\C4H11N1\FINEJ\14-Oct-2019\0\\
 #P opt freq b3lyp/6-31g(d) geom=connectivity temperature=0.001\\Title
 Card Required\\0,1\C,1.8124354349,-0.6609404729,-1.4403799448\C,1.0997
 408627,0.3672936528,-0.5558475334\C,1.9993438655,1.5426171323,-0.15478
 27062\C,1.2968715252,2.5690594735,0.7360706697\N,2.1951910576,3.689212
 9182,1.0442565209\H,2.6811689585,-1.0910755479,-0.9267659575\H,1.14460
 37479,-1.4861124197,-1.7130769805\H,2.1724873056,-0.2019970875,-2.3692
 377375\H,0.2153930028,0.7519943921,-1.0836024096\H,0.721267814,-0.1293

 Normal termination of Gaussian 16 at Mon Oct 14 00:45:05 2019.

 --------------------------------------------------------------------
 #P Geom=AllCheck Guess=TCheck SCRF=Check GenChk RB3LYP/6-31G(d) Freq
 --------------------------------------------------------------------

 Structure from the checkpoint file:  "18.chk"
 -------------------
 Title Card Required
 -------------------
 Charge =  0 Multiplicity = 1

                         Standard orientation:
 ---------------------------------------------------------------------
 Center     Atomic      Atomic             Coordinates (Angstroms)
 Number     Number       Type             X           Y           Z
 ---------------------------------------------------------------------
      1          6           0       -2.539677   -0.306839   -0.012831
      2          6           0       -1.253667    0.524763    0.034209
      3          6           0        0.018123   -0.329163   -0.035678
      4          6           0        1.306516    0.494024    0.019799
      5          7           0        2.483419   -0.376302   -0.099073
      6          1           0       -2.587248   -1.010842    0.827187
      7          1           0       -3.430441    0.329929    0.035524
      8          1           0       -2.598226   -0.893051   -0.938018
      9          1           0       -1.253286    1.243447   -0.797707
     10          1           0       -1.240909    1.125727    0.954798
     11          1           0        0.015859   -1.050759    0.796363
     12          1           0        0.025495   -0.924297   -0.958079
     13          1           0        1.325052    1.192409   -0.827346
     14          1           0        1.298554    1.115194    0.935773
     15          1           0        2.541821   -0.978809    0.721824
     16          1           0        3.331627    0.188453   -0.089801
 ---------------------------------------------------------------------

 SCF Done:  E(RB3LYP) =  -213.797381698     A.U. after    1 cycles

 The electronic state is 1-A.
 Alpha  occ. eigenvalues --  -14.30649 -10.20058 -10.17768 -10.17246 -10.17060
 Alpha  occ. eigenvalues --   -0.87249  -0.77953  -0.70101  -0.61182  -0.57405
 Alpha  occ. eigenvalues --   -0.48213  -0.46169  -0.43712  -0.41274  -0.40251
 Alpha  occ. eigenvalues --   -0.37164  -0.34899  -0.32853  -0.32320  -0.32056
 Alpha  occ. eigenvalues --   -0.22838
 Alpha virt. eigenvalues --    0.08522   0.09923   0.12630   0.13469   0.14452
 Alpha virt. eigenvalues --    0.16764   0.18020   0.19024   0.19497   0.19840
 Alpha virt. eigenvalues --    0.20808   0.22832   0.25453   0.26652   0.28957

 Mulliken charges:
               1
     1  C   -0.440399
     2  C   -0.250278
     3  C   -0.240097
     4  C   -0.133181
     5  N   -0.715814
     6  H    0.140754
     7  H    0.140957
     8  H    0.143580
     9  H    0.131380
    10  H    0.128802
    11  H    0.120053
    12  H    0.145823
    13  H    0.136598
    14  H    0.108344
    15  H    0.289893
    16  H    0.293584
 Sum of Mulliken charges =  -0.00000

 Dipole moment (field-independent basis, Debye):
    X=              0.2135    Y=              0.6938    Z=              1.1561  Tot=              1.3651
 Quadrupole moment (field-independent basis, Debye-Ang):
   XX=            -31.9728   YY=            -34.2465   ZZ=            -33.8720
   XY=              1.7871   XZ=              3.2806   YZ=             -1.7834

  Exact polarizability:  60.286  -0.257  47.721   0.049  -1.297  45.019
 Approx polarizability:  67.080  -1.085  65.890  -0.589  -2.100  64.615

                      1                      2                      3
                      A                      A                      A
 Frequencies --    109.6791               116.9954               182.3348
 Red. masses --      1.8117                 2.1734                 2.6147
 Frc consts  --      0.0128                 0.0175                 0.0512
 IR Inten    --      3.2867                 1.5780                 0.8514

                      4                      5                      6
                      A                      A                      A
 Frequencies --    250.7166               272.1575               395.8739
 Red. masses --      1.1150                 1.1350                 3.0849
 Frc consts  --      0.0413                 0.0495                 0.2848
 IR Inten    --      0.6807                47.6361                 0.0532

                      7                      8                      9
                      A                      A                      A
 Frequencies --    434.7086               750.0715               812.5113
 Red. masses --      3.0679                 1.0720                 1.1255
 Frc consts  --      0.3416                 0.3554                 0.4378
 IR Inten    --     10.6845                 2.8943                 8.4080

                     10                     11                     12
                      A                      A                      A
 Frequencies --    879.6834               911.8651               965.3196
 Red. masses --      1.3380                 1.6077                 1.3193
 Frc consts  --      0.6101                 0.7876                 0.7243
 IR Inten    --    123.5527                 6.8478                 9.7191

                     13                     14                     15
                      A                      A                      A
 Frequencies --    986.0882              1062.6039              1084.5427
 Red. masses --      2.4768                 2.2472                 2.0293
 Frc consts  --      1.4189                 1.4950                 1.4064
 IR Inten    --      7.4301                 0.1021                 3.1552

                     16                     17                     18
                      A                      A                      A
 Frequencies --   1107.9903              1173.0117              1241.6255
 Red. masses --      1.8199                 1.7773                 1.6070
 Frc consts  --      1.3164                 1.4408                 1.4597
 IR Inten    --      5.5366                 9.9554                 0.4118

                     19                     20                     21
                      A                      A                      A
 Frequencies --   1284.5378              1328.9426              1341.5403
 Red. masses --      1.3231                 1.2581                 1.0499
 Frc consts  --      1.2863                 1.3091                 1.1132
 IR Inten    --      3.7966                 2.0159                 1.2346

                     22                     23                     24
                      A                      A                      A
 Frequencies --   1355.3902              1410.9980              1440.6793
 Red. masses --      1.2279                 1.4838                 1.2626
 Frc consts  --      1.3291                 1.7405                 1.5441
 IR Inten    --      0.4748                 0.2469                 2.2348

                     25                     26                     27
                      A                      A                      A
 Frequencies --   1452.6406              1517.3158              1524.1425
 Red. masses --      1.4830                 1.0685                 1.0701
 Frc consts  --      1.8438                 1.4493                 1.4647
 IR Inten    --     15.5887                 0.2489                 0.2703

                     28                     29                     30
                      A                      A                      A
 Frequencies --   1529.9106              1538.2339              1549.5809
 Red. masses --      1.0411                 1.0744                 1.0932
 Frc consts  --      1.4357                 1.4978                 1.5467
 IR Inten    --      5.8342                 3.7623                 0.9318

                     31                     32                     33
                      A                      A                      A
 Frequencies --   1696.6248              2939.0069              3011.3107
 Red. masses --      1.0887                 1.0739                 1.0674
 Frc consts  --      1.8464                 5.4653                 5.7026
 IR Inten    --     25.4207                87.0059                12.8493

                     34                     35                     36
                      A                      A                      A
 Frequencies --   3024.4084              3041.5767              3049.6039
 Red. masses --      1.0612                 1.0368                 1.0973
 Frc consts  --      5.7193                 5.6510                 6.0124
 IR Inten    --     39.1060                30.9130                11.2977

                     37                     38                     39
                      A                      A                      A
 Frequencies --   3054.6908              3079.2417              3106.9357
 Red. masses --      1.0849                 1.1002                 1.1027
 Frc consts  --      5.9644                 6.1460                 6.2717
 IR Inten    --     36.2845                53.2395                69.1292

                     40                     41                     42
                      A                      A                      A
 Frequencies --   3110.9875              3455.3691              3540.3832
 Red. masses --      1.1021                 1.0500                 1.0919
 Frc consts  --      6.2843                 7.3861                 8.0637
 IR Inten    --     44.5390                 3.7399                 1.5494

 - Thermochemistry -
 -------------------
 Temperature     0.001 Kelvin.  Pressure   1.00000 Atm.
 Atom     1 has atomic number  6 and mass  12.00000

 Molecular mass:    73.08915 amu.
 Principal axes and moments of inertia in atomic units:
                           1         2         3
     Eigenvalues --   100.10762 927.42826 977.91999
           X            0.99994   0.00867   0.00621
           Y           -0.00844   0.99933  -0.03551
           Z           -0.00652   0.03545   0.99935
 This molecule is an asymmetric top.
 Rotational symmetry number  1.
 Rotational temperatures (Kelvin)      0.86521     0.09339     0.08857
 Rotational constants (GHZ):          18.02801     1.94596     1.84549
 Zero-point vibrational energy     395496.4 (Joules/Mol)
                                   94.52590 (Kcal/Mol)
 Vibrational temperatures:    157.80   168.33   262.34   360.73   391.57
          (Kelvin)            569.57   625.45  1079.19  1169.02  1265.67
                             1311.97  1388.88  1418.76  1528.85  1560.42
                             1594.15  1687.70  1786.42  1848.16  1912.05
                             1930.18  1950.10  2030.11  2072.82  2090.03
                             2183.08  2192.90  2201.20  2213.18  2229.50
                             2441.06  4228.58  4332.60  4351.45  4376.15
                             4387.70  4395.02  4430.34  4470.19  4476.02
                             4971.51  5093.82

 Zero-point correction=                           0.150637 (Hartree/Particle)
 Thermal correction to Energy=                    0.150637
 Thermal correction to Enthalpy=                  0.150637
 Thermal correction to Gibbs Free Energy=         0.150637
 Sum of electronic and zero-point Energies=           -213.646745
 Sum of electronic and thermal Energies=              -213.646745
 Sum of electronic and thermal Enthalpies=            -213.646745
 Sum of electronic and thermal Free Energies=         -213.646745

                     E (Thermal)             CV                S
                      KCal/Mol        Cal/Mol-Kelvin    Cal/Mol-Kelvin
 Total                   94.526              5.962            -35.404
 Electronic               0.000              0.000              0.000
 Translational            0.000              2.981            -23.840
 Rotational               0.000              2.981            -11.564
 Vibrational             94.526              0.000              0.000

 Optimization completed.
    -- Stationary point found.

 1\1\GINC-BROWN-A185\Freq\RB3LYP\6-31G(d)\C4H11N1\FINEJ\14-Oct-2019\0\\
 #P Geom=AllCheck Guess=TCheck SCRF=Check GenChk RB3LYP/6-31G(d) Freq\\
 Title Card Required\\0,1\C,1.8124354349,-0.6609404729,-1.4403799448\C,
 1.0997408627,0.3672936528,-0.5558475334\C,1.9993438655,1.5426171323,-0
 .1547827062\C,1.2968715252,2.5690594735,0.7360706697\N,2.1951910576,3.
 6892129182,1.0442565209\H,2.6811689585,-1.0910755479,-0.9267659575\H,1
 .1446037479,-1.4861124197,-1.7130769805\H,2.1724873056,-0.2019970875,-
 2.3692377375\H,0.2153930028,0.7519943921,-1.0836024096\H,0.721267814,-

 Normal termination of Gaussian 16 at Mon Oct 14 00:45:15 2019.
