 Gaussian 16, Revision A.03,
 Gaussian 16:  ES64L-G16RevA.03 25-Dec-2016

 --------------------------------------------------------------
 #P opt freq b3lyp/6-31g(d) geom=connectivity temperature=0.001
 --------------------------------------------------------------

 -------------------
 Title Card Required
 -------------------
 Symbolic Z-matrix:
 Charge =  1 Multiplicity = 1

 SCF Done:  E(RB3LYP) =  -214.142185920     A.U. after   12 cycles
 SCF Done:  E(RB3LYP) =  -214.158968505     A.U. after   11 cycles
 SCF Done:  E(RB3LYP) =  -214.163223040     A.U. after   10 cycles
 SCF Done:  E(RB3LYP) =  -214.164219821     A.U. after   10 cycles
 SCF Done:  E(RB3LYP) =  -214.164509689     A.U. after   10 cycles
 SCF Done:  E(RB3LYP) =  -214.164637305     A.U. after    8 cycles
 SCF Done:  E(RB3LYP) =  -214.132023794     A.U. after   11 cycles
 SCF Done:  E(RB3LYP) =  -214.165556025     A.U. after   10 cycles
 SCF Done:  E(RB3LYP) =  -214.165932676     A.U. after   10 cycles
 SCF Done:  E(RB3LYP) =  -214.166062726     A.U. after    9 cycles
 SCF Done:  E(RB3LYP) =  -214.166316095     A.U. after    9 cycles
 SCF Done:  E(RB3LYP) =  -214.166750209     A.U. after   10 cycles
 SCF Done:  E(RB3LYP) =  -214.167123804     A.U. after    9 cycles
 SCF Done:  E(RB3LYP) =  -214.167637810     A.U. after    9 cycles
 SCF Done:  E(RB3LYP) =  -214.167918243     A.U. after   10 cycles
 SCF Done:  E(RB3LYP) =  -214.168049062     A.U. after    9 cycles
 SCF Done:  E(RB3LYP) =  -214.168059717     A.U. after    8 cycles
 SCF Done:  E(RB3LYP) =  -214.168061252     A.U. after    7 cycles
 SCF Done:  E(RB3LYP) =  -214.168061327     A.U. after    6 cycles
 Optimization completed.
    -- Stationary point found.
 Normal termination of Gaussian 16 at Mon Oct 14 00:46:28 2019.

 --------------------------------------------------------------------
 #P Geom=AllCheck Guess=TCheck SCRF=Check GenChk RB3LYP/6-31G(d) Freq
 --------------------------------------------------------------------

 Structure from the checkpoint file:  "18_p.chk"
 -------------------
 Title Card Required
 -------------------
 Charge =  1 Multiplicity = 1

                         Standard orientation:
 ---------------------------------------------------------------------
 Center     Atomic      Atomic             Coordinates (Angstroms)
 Number     Number       Type             X           Y           Z
 ---------------------------------------------------------------------
      1          6           0       -2.595770   -0.330651    0.000113
      2          6           0       -1.328778    0.530609   -0.000066
      3          6           0       -0.047036   -0.323967   -0.000189
      4          6           0        1.198734    0.552022    0.000049
      5          7           0        2.469471   -0.306496    0.000058
      6          1           0       -2.642857   -0.972336    0.887060
      7          1           0       -3.487157    0.303061    0.000210
      8          1           0       -2.643066   -0.972385   -0.886799
      9          1           0       -1.325905    1.186018   -0.880636
     10          1           0       -1.325652    1.186004    0.880506
     11          1           0       -0.043575   -0.975789    0.884801
     12          1           0       -0.043536   -0.975439   -0.885432
     13          1           0        1.267657    1.183441   -0.889156
     14          1           0        1.267514    1.183210    0.889434
     15          1           0        2.501448   -0.916506    0.826549
     16          1           0        2.501751   -0.916066   -0.826745
     17          1           0        3.324177    0.264187    0.000356
 ---------------------------------------------------------------------

 SCF Done:  E(RB3LYP) =  -214.168061327     A.U. after    1 cycles

 The electronic state is 1-A.
 Alpha  occ. eigenvalues --  -14.66623 -10.43603 -10.36096 -10.32695 -10.29318
 Alpha  occ. eigenvalues --   -1.20459  -0.97089  -0.89029  -0.81697  -0.79047
 Alpha  occ. eigenvalues --   -0.77873  -0.72707  -0.68010  -0.64534  -0.58576
 Alpha  occ. eigenvalues --   -0.57848  -0.54211  -0.52109  -0.48628  -0.47405
 Alpha  occ. eigenvalues --   -0.46733
 Alpha virt. eigenvalues --   -0.16913  -0.10198  -0.10192  -0.08135  -0.04594
 Alpha virt. eigenvalues --   -0.03082  -0.02586   0.01160   0.01686   0.03774
 Alpha virt. eigenvalues --    0.04871   0.05666   0.07259   0.07489   0.09337

 Mulliken charges:
               1
     1  C   -0.451980
     2  C   -0.268223
     3  C   -0.286880
     4  C   -0.207291
     5  N   -0.731610
     6  H    0.164306
     7  H    0.186012
     8  H    0.164308
     9  H    0.165179
    10  H    0.165163
    11  H    0.171300
    12  H    0.171315
    13  H    0.232402
    14  H    0.232398
    15  H    0.429622
    16  H    0.429624
    17  H    0.434358
 Sum of Mulliken charges =   1.00000

 Dipole moment (field-independent basis, Debye):
    X=              8.9376    Y=             -0.8616    Z=              0.0001  Tot=              8.9790
 Quadrupole moment (field-independent basis, Debye-Ang):
   XX=             -1.8260   YY=            -28.8878   ZZ=            -29.2364
   XY=             -3.0830   XZ=              0.0006   YZ=             -0.0001

  Exact polarizability:  59.219  -0.165  45.388   0.000   0.000  43.792
 Approx polarizability:  66.356  -0.705  62.358   0.001  -0.000  62.789

                      1                      2                      3
                      A                      A                      A
 Frequencies --    106.8175               111.5776               175.0436
 Red. masses --      1.6886                 2.1690                 2.6744
 Frc consts  --      0.0114                 0.0159                 0.0483
 IR Inten    --      0.0029                 4.4991                 6.1042

                      4                      5                      6
                      A                      A                      A
 Frequencies --    231.0803               248.8459               386.5996
 Red. masses --      1.0937                 1.1255                 3.4285
 Frc consts  --      0.0344                 0.0411                 0.3019
 IR Inten    --      0.0150                 0.0158                 4.3721

                      7                      8                      9
                      A                      A                      A
 Frequencies --    399.0711               754.1360               800.2623
 Red. masses --      2.4850                 1.0673                 1.1112
 Frc consts  --      0.2332                 0.3576                 0.4193
 IR Inten    --      3.7286                 6.3843                 1.5324

                     10                     11                     12
                      A                      A                      A
 Frequencies --    864.0581               898.2068               904.6833
 Red. masses --      3.4328                 1.9675                 1.1382
 Frc consts  --      1.5100                 0.9352                 0.5489
 IR Inten    --     25.2704                 3.8696                 9.4951

                     13                     14                     15
                      A                      A                      A
 Frequencies --    979.5907              1008.5909              1050.4766
 Red. masses --      2.0912                 1.1135                 2.6113
 Frc consts  --      1.1823                 0.6674                 1.6978
 IR Inten    --      4.5351                 3.2218                 5.2727

                     16                     17                     18
                      A                      A                      A
 Frequencies --   1073.1238              1179.5065              1225.8610
 Red. masses --      1.8018                 2.1276                 1.7620
 Frc consts  --      1.2226                 1.7440                 1.5601
 IR Inten    --     24.4052                10.1081                 1.5129

                     19                     20                     21
                      A                      A                      A
 Frequencies --   1307.9279              1324.4468              1353.8762
 Red. masses --      1.3056                 1.3063                 1.0434
 Frc consts  --      1.3159                 1.3501                 1.1268
 IR Inten    --      3.0954                 3.5924                 5.7516

                     22                     23                     24
                      A                      A                      A
 Frequencies --   1361.6165              1405.6589              1422.0145
 Red. masses --      1.1444                 1.3946                 1.3602
 Frc consts  --      1.2501                 1.6236                 1.6206
 IR Inten    --      2.0140                 1.1546                16.8598

                     25                     26                     27
                      A                      A                      A
 Frequencies --   1449.9624              1515.8865              1518.1348
 Red. masses --      1.2208                 1.0916                 1.0630
 Frc consts  --      1.5122                 1.4780                 1.4434
 IR Inten    --      1.9231                 2.7806                 4.1303

                     28                     29                     30
                      A                      A                      A
 Frequencies --   1528.1294              1529.9869              1537.9399
 Red. masses --      1.0681                 1.0392                 1.1104
 Frc consts  --      1.4695                 1.4333                 1.5474
 IR Inten    --      5.0270                11.8809                49.2290

                     31                     32                     33
                      A                      A                      A
 Frequencies --   1542.9722              1695.6246              1701.2719
 Red. masses --      1.1437                 1.0424                 1.0448
 Frc consts  --      1.6042                 1.7658                 1.7816
 IR Inten    --    108.4751                59.8739                41.0624

                     34                     35                     36
                      A                      A                      A
 Frequencies --   3030.0449              3046.7029              3059.4307
 Red. masses --      1.0584                 1.0591                 1.0374
 Frc consts  --      5.7253                 5.7922                 5.7212
 IR Inten    --      6.5998                20.1470                21.4545

                     37                     38                     39
                      A                      A                      A
 Frequencies --   3065.6529              3088.1359              3110.4689
 Red. masses --      1.1044                 1.1063                 1.0591
 Frc consts  --      6.1156                 6.2161                 6.0372
 IR Inten    --      1.2718                17.5085                 3.4108

                     40                     41                     42
                      A                      A                      A
 Frequencies --   3126.4387              3142.7811              3170.6691
 Red. masses --      1.1040                 1.1016                 1.1123
 Frc consts  --      6.3580                 6.4106                 6.5885
 IR Inten    --     33.0708                12.7055                 2.5658

                     43                     44                     45
                      A                      A                      A
 Frequencies --   3390.2382              3481.1552              3483.2839
 Red. masses --      1.0305                 1.0938                 1.0942
 Frc consts  --      6.9785                 7.8097                 7.8222
 IR Inten    --     45.3695                89.8465                93.7598

 - Thermochemistry -
 -------------------
 Temperature     0.001 Kelvin.  Pressure   1.00000 Atm.
 Atom     1 has atomic number  6 and mass  12.00000

 Molecular mass:    74.09697 amu.
 Principal axes and moments of inertia in atomic units:
                           1         2         3
     Eigenvalues --   106.97373 961.594761013.58037
           X            1.00000   0.00134  -0.00000
           Y           -0.00134   1.00000   0.00000
           Z            0.00000  -0.00000   1.00000
 This molecule is an asymmetric top.
 Rotational symmetry number  1.
 Rotational temperatures (Kelvin)      0.80967     0.09007     0.08545
 Rotational constants (GHZ):          16.87088     1.87682     1.78056
 Zero-point vibrational energy     435368.8 (Joules/Mol)
                                  104.05565 (Kcal/Mol)
 Vibrational temperatures:    153.69   160.54   251.85   332.47   358.03
          (Kelvin)            556.23   574.17  1085.03  1151.40  1243.19
                             1292.32  1301.64  1409.41  1451.14  1511.40
                             1543.99  1697.05  1763.74  1881.82  1905.58
                             1947.93  1959.06  2022.43  2045.96  2086.17
                             2181.02  2184.26  2198.64  2201.31  2212.75
                             2219.99  2439.63  2447.75  4359.56  4383.53
                             4401.84  4410.79  4443.14  4475.27  4498.25
                             4521.76  4561.89  4877.80  5008.61  5011.67

 Zero-point correction=                           0.165823 (Hartree/Particle)
 Thermal correction to Energy=                    0.165823
 Thermal correction to Enthalpy=                  0.165823
 Thermal correction to Gibbs Free Energy=         0.165823
 Sum of electronic and zero-point Energies=           -214.002238
 Sum of electronic and thermal Energies=              -214.002238
 Sum of electronic and thermal Enthalpies=            -214.002238
 Sum of electronic and thermal Free Energies=         -214.002238

                     E (Thermal)             CV                S
                      KCal/Mol        Cal/Mol-Kelvin    Cal/Mol-Kelvin
 Total                  104.056              5.962            -35.226
 Electronic               0.000              0.000              0.000
 Translational            0.000              2.981            -23.799
 Rotational               0.000              2.981            -11.427
 Vibrational            104.056              0.000              0.000

 Optimization completed.
    -- Stationary point found.
 Normal termination of Gaussian 16 at Mon Oct 14 00:46:38 2019.
