 Gaussian 16, Revision A.03,
 Gaussian 16:  ES64L-G16RevA.03 25-Dec-2016

 --------------------------------------------------------------
 #p opt freq b3lyp/6-31g(d) geom=connectivity temperature=0.001
 --------------------------------------------------------------

 -------------------
 Title Card Required
 -------------------
 Symbolic Z-matrix:
 Charge =  0 Multiplicity = 1

 SCF Done:  E(RB3LYP) =  -287.566977318     A.U. after   13 cycles
 SCF Done:  E(RB3LYP) =  -287.593979172     A.U. after   13 cycles
 SCF Done:  E(RB3LYP) =  -287.601094516     A.U. after   13 cycles
 SCF Done:  E(RB3LYP) =  -287.601548376     A.U. after   11 cycles
 SCF Done:  E(RB3LYP) =  -287.601668455     A.U. after   11 cycles
 SCF Done:  E(RB3LYP) =  -287.601736965     A.U. after   11 cycles
 SCF Done:  E(RB3LYP) =  -287.601751799     A.U. after    9 cycles
 SCF Done:  E(RB3LYP) =  -287.601752508     A.U. after    8 cycles
 SCF Done:  E(RB3LYP) =  -287.601752655     A.U. after    7 cycles
 Optimization completed.
    -- Stationary point found.
 Normal termination of Gaussian 16 at Mon Oct 14 11:06:45 2019.

 --------------------------------------------------------------------
 #P Geom=AllCheck Guess=TCheck SCRF=Check GenChk RB3LYP/6-31G(d) Freq
 --------------------------------------------------------------------

 Structure from the checkpoint file:  "19.chk"
 -------------------
 Title Card Required
 -------------------
 Charge =  0 Multiplicity = 1

                         Standard orientation:
 ---------------------------------------------------------------------
 Center     Atomic      Atomic             Coordinates (Angstroms)
 Number     Number       Type             X           Y           Z
 ---------------------------------------------------------------------
      1          7           0       -2.337382   -0.000036   -0.078760
      2          6           0       -0.938673   -0.000009   -0.010235
      3          6           0       -0.221244   -1.208257   -0.005352
      4          6           0        1.171840   -1.202609    0.003248
      5          6           0        1.881635    0.000028    0.008560
      6          6           0        1.171769    1.202640    0.003398
      7          6           0       -0.221321    1.208247   -0.005345
      8          1           0       -2.777260   -0.834937    0.289047
      9          1           0       -2.777384    0.834807    0.289040
     10          1           0       -0.763331   -2.151700   -0.013439
     11          1           0        1.705793   -2.149674    0.008861
     12          1           0        2.967581   -0.000039    0.017269
     13          1           0        1.705543    2.149812    0.008574
     14          1           0       -0.763297    2.151744   -0.013668
 ---------------------------------------------------------------------

 SCF Done:  E(RB3LYP) =  -287.601752655     A.U. after    1 cycles

 The electronic state is 1-A.
 Alpha  occ. eigenvalues --  -14.33774 -10.22228 -10.18140 -10.18138 -10.17678
 Alpha  occ. eigenvalues --  -10.17678 -10.17182  -0.91309  -0.82663  -0.73496
 Alpha  occ. eigenvalues --   -0.71676  -0.60358  -0.58961  -0.51612  -0.50194
 Alpha  occ. eigenvalues --   -0.47125  -0.42453  -0.41816  -0.41008  -0.37327
 Alpha  occ. eigenvalues --   -0.34965  -0.33360  -0.30191  -0.24061  -0.19817
 Alpha virt. eigenvalues --    0.00919   0.02380   0.08201   0.10329   0.12426
 Alpha virt. eigenvalues --    0.16370   0.16631   0.17651   0.19525   0.19571
 Alpha virt. eigenvalues --    0.26611   0.31295   0.32616   0.35004   0.35651

 Mulliken charges:
               1
     1  N   -0.786143
     2  C    0.306822
     3  C   -0.172520
     4  C   -0.134700
     5  C   -0.138822
     6  C   -0.134703
     7  C   -0.172529
     8  H    0.317884
     9  H    0.317889
    10  H    0.114118
    11  H    0.124250
    12  H    0.120078
    13  H    0.124246
    14  H    0.114127
 Sum of Mulliken charges =  -0.00000

 Dipole moment (field-independent basis, Debye):
    X=             -1.2595    Y=              0.0000    Z=              1.1604  Tot=              1.7125
 Quadrupole moment (field-independent basis, Debye-Ang):
   XX=            -34.3413   YY=            -36.3032   ZZ=            -45.3063
   XY=             -0.0005   XZ=             -3.5070   YZ=             -0.0010

  Exact polarizability:  91.430  -0.000  76.292  -0.385  -0.001  24.488
 Approx polarizability: 148.642  -0.001 126.722   1.041   0.002  36.448

                      1                      2                      3
                      A                      A                      A
 Frequencies --    224.6389               289.1326               383.0397
 Red. masses --      3.6587                 1.0382                 2.9741
 Frc consts  --      0.1088                 0.0511                 0.2571
 IR Inten    --      5.0193                22.6871                 0.1369

                      4                      5                      6
                      A                      A                      A
 Frequencies --    418.4538               508.8763               536.5320
 Red. masses --      3.0988                 2.4392                 6.4065
 Frc consts  --      0.3197                 0.3721                 1.0866
 IR Inten    --      0.3443                47.9220                 3.3227

                      7                      8                      9
                      A                      A                      A
 Frequencies --    633.9855               635.8745               704.8497
 Red. masses --      1.4042                 6.3505                 2.0921
 Frc consts  --      0.3325                 1.5129                 0.6124
 IR Inten    --    308.9798                 0.2661                 8.9840

                     10                     11                     12
                      A                      A                      A
 Frequencies --    763.8730               828.1007               835.4785
 Red. masses --      1.7124                 1.2570                 4.1297
 Frc consts  --      0.5887                 0.5079                 1.6984
 IR Inten    --     78.0432                 0.1181                 2.5011

                     13                     14                     15
                      A                      A                      A
 Frequencies --    878.5869               947.7875               975.1754
 Red. masses --      1.5078                 1.3211                 1.2192
 Frc consts  --      0.6858                 0.6992                 0.6831
 IR Inten    --     11.5430                 0.0000                 0.2298

                     16                     17                     18
                      A                      A                      A
 Frequencies --   1011.9534              1057.0171              1079.3764
 Red. masses --      5.8967                 2.1475                 1.6012
 Frc consts  --      3.5578                 1.4136                 1.0991
 IR Inten    --      0.6489                 1.9717                 2.5631

                     19                     20                     21
                      A                      A                      A
 Frequencies --   1151.2755              1189.7889              1211.2503
 Red. masses --      1.2501                 1.0894                 1.1280
 Frc consts  --      0.9762                 0.9086                 0.9750
 IR Inten    --      2.8327                 1.8062                 7.3842

                     22                     23                     24
                      A                      A                      A
 Frequencies --   1316.6768              1368.7978              1377.3204
 Red. masses --      3.1456                 4.9213                 1.3366
 Frc consts  --      3.2130                 5.4326                 1.4939
 IR Inten    --     55.0487                 7.4783                 0.7276

                     25                     26                     27
                      A                      A                      A
 Frequencies --   1519.5576              1551.7085              1646.9242
 Red. masses --      2.3240                 2.3679                 5.6450
 Frc consts  --      3.1616                 3.3592                 9.0211
 IR Inten    --      1.7948                54.7533                 4.5798

                     28                     29                     30
                      A                      A                      A
 Frequencies --   1668.1909              1695.3010              3169.3890
 Red. masses --      3.6169                 1.2786                 1.0859
 Frc consts  --      5.9303                 2.1652                 6.4265
 IR Inten    --     37.5280               106.6898                20.0426

                     31                     32                     33
                      A                      A                      A
 Frequencies --   3170.4805              3186.4500              3192.1919
 Red. masses --      1.0877                 1.0896                 1.0937
 Frc consts  --      6.4418                 6.5180                 6.5666
 IR Inten    --      5.6770                 4.1116                47.2492

                     34                     35                     36
                      A                      A                      A
 Frequencies --   3209.7726              3545.7868              3643.7927
 Red. masses --      1.0972                 1.0480                 1.0978
 Frc consts  --      6.6600                 7.7628                 8.5879
 IR Inten    --     19.2635                 9.5403                 7.2222

 - Thermochemistry -
 -------------------
 Temperature     0.001 Kelvin.  Pressure   1.00000 Atm.
 Atom     1 has atomic number  7 and mass  14.00307

 Molecular mass:    93.05785 amu.
 Principal axes and moments of inertia in atomic units:
                           1         2         3
     Eigenvalues --   321.55530 697.807531017.61982
           X            0.99997  -0.00000  -0.00768
           Y            0.00000   1.00000  -0.00001
           Z            0.00768   0.00001   0.99997
 This molecule is an asymmetric top.
 Rotational symmetry number  1.
 Rotational temperatures (Kelvin)      0.26936     0.12412     0.08511
 Rotational constants (GHZ):           5.61254     2.58630     1.77349
 Zero-point vibrational energy     308202.2 (Joules/Mol)
                                   73.66210 (Kcal/Mol)
 Vibrational temperatures:    323.21   416.00   551.11   602.06   732.16
          (Kelvin)            771.95   912.16   914.88  1014.12  1099.04
                             1191.45  1202.07  1264.09  1363.65  1403.06
                             1455.98  1520.81  1552.98  1656.43  1711.84
                             1742.72  1894.40  1969.39  1981.66  2186.30
                             2232.56  2369.56  2400.15  2439.16  4560.04
                             4561.61  4584.59  4592.85  4618.15  5101.60
                             5242.61

 Zero-point correction=                           0.117388 (Hartree/Particle)
 Thermal correction to Energy=                    0.117388
 Thermal correction to Enthalpy=                  0.117388
 Thermal correction to Gibbs Free Energy=         0.117388
 Sum of electronic and zero-point Energies=           -287.484365
 Sum of electronic and thermal Energies=              -287.484365
 Sum of electronic and thermal Enthalpies=            -287.484365
 Sum of electronic and thermal Free Energies=         -287.484365

                     E (Thermal)             CV                S
                      KCal/Mol        Cal/Mol-Kelvin    Cal/Mol-Kelvin
 Total                   73.662              5.962            -33.768
 Electronic               0.000              0.000              0.000
 Translational            0.000              2.981            -23.120
 Rotational               0.000              2.981            -10.648
 Vibrational             73.662              0.000              0.000

 Optimization completed.
    -- Stationary point found.
 Normal termination of Gaussian 16 at Mon Oct 14 11:06:58 2019.
