 Gaussian 16, Revision A.03,
 Gaussian 16:  ES64L-G16RevA.03 25-Dec-2016

 --------------------------------------------------------------
 #p opt freq b3lyp/6-31g(d) geom=connectivity temperature=0.001
 --------------------------------------------------------------

 -------------------
 Title Card Required
 -------------------
 Symbolic Z-matrix:
 Charge =  1 Multiplicity = 1

 SCF Done:  E(RB3LYP) =  -287.936121796     A.U. after   13 cycles
 SCF Done:  E(RB3LYP) =  -287.954465671     A.U. after   12 cycles
 SCF Done:  E(RB3LYP) =  -287.955619563     A.U. after   10 cycles
 SCF Done:  E(RB3LYP) =  -287.955816162     A.U. after    9 cycles
 SCF Done:  E(RB3LYP) =  -287.955837018     A.U. after    9 cycles
 SCF Done:  E(RB3LYP) =  -287.955837915     A.U. after    8 cycles
 Optimization completed.
    -- Stationary point found.
 Normal termination of Gaussian 16 at Mon Oct 14 11:06:29 2019.

 --------------------------------------------------------------------
 #P Geom=AllCheck Guess=TCheck SCRF=Check GenChk RB3LYP/6-31G(d) Freq
 --------------------------------------------------------------------

 Structure from the checkpoint file:  "19_p.chk"
 -------------------
 Title Card Required
 -------------------
 Charge =  1 Multiplicity = 1

                         Standard orientation:
 ---------------------------------------------------------------------
 Center     Atomic      Atomic             Coordinates (Angstroms)
 Number     Number       Type             X           Y           Z
 ---------------------------------------------------------------------
      1          7           0       -2.325671    0.000127    0.007166
      2          6           0       -0.826246    0.000486   -0.009613
      3          6           0       -0.167872    1.224003   -0.004884
      4          6           0        1.228401    1.212524    0.001477
      5          6           0        1.920463   -0.000316    0.005412
      6          6           0        1.226925   -1.213152    0.001529
      7          6           0       -0.168732   -1.224261   -0.004923
      8          1           0       -2.708902   -0.763433   -0.565119
      9          1           0       -2.703990   -0.111043    0.958601
     10          1           0       -0.711583    2.165606   -0.008085
     11          1           0        1.769095    2.153166    0.000165
     12          1           0        3.005707   -0.000952    0.008042
     13          1           0        1.767353   -2.153970    0.000297
     14          1           0       -0.713349   -2.165204   -0.008317
     15          1           0       -2.702272    0.879227   -0.369729
 ---------------------------------------------------------------------

 SCF Done:  E(RB3LYP) =  -287.955837915     A.U. after    1 cycles

 The electronic state is 1-A.
 Alpha  occ. eigenvalues --  -14.66716 -10.42284 -10.36919 -10.36859 -10.35226
 Alpha  occ. eigenvalues --  -10.35216 -10.34742  -1.20715  -1.02281  -0.91856
 Alpha  occ. eigenvalues --   -0.91665  -0.80686  -0.79080  -0.78258  -0.74730
 Alpha  occ. eigenvalues --   -0.71258  -0.65391  -0.61503  -0.59900  -0.59031
 Alpha  occ. eigenvalues --   -0.53507  -0.52017  -0.51310  -0.42095  -0.41690
 Alpha virt. eigenvalues --   -0.17656  -0.16825  -0.15978  -0.10007  -0.09318
 Alpha virt. eigenvalues --   -0.07390  -0.00308  -0.00080   0.00013   0.02375
 Alpha virt. eigenvalues --    0.03981   0.05545   0.12685   0.14294   0.16635

 Mulliken charges:
               1
     1  N   -0.791033
     2  C    0.176171
     3  C   -0.137851
     4  C   -0.131362
     5  C   -0.100217
     6  C   -0.131217
     7  C   -0.137093
     8  H    0.435379
     9  H    0.440014
    10  H    0.177957
    11  H    0.195799
    12  H    0.194787
    13  H    0.195792
    14  H    0.178288
    15  H    0.434585
 Sum of Mulliken charges =   1.00000

 Dipole moment (field-independent basis, Debye):
    X=             -7.1687    Y=             -0.0056    Z=              0.0543  Tot=              7.1689
 Quadrupole moment (field-independent basis, Debye-Ang):
   XX=             -6.5960   YY=            -29.8414   ZZ=            -40.8533
   XY=              0.0141   XZ=             -0.0787   YZ=             -0.0001

  Exact polarizability:  81.430   0.107  73.434   0.162   0.000  26.497
 Approx polarizability: 127.967   0.247 125.212   0.464   0.000  39.355

                      1                      2                      3
                      A                      A                      A
 Frequencies --     11.1695               214.1852               348.1363
 Red. masses --      1.0316                 3.1753                 2.7260
 Frc consts  --      0.0001                 0.0858                 0.1947
 IR Inten    --      0.1209                23.7004                 9.7947

                      4                      5                      6
                      A                      A                      A
 Frequencies --    413.8851               457.2289               520.1524
 Red. masses --      2.9218                 3.0787                 5.2433
 Frc consts  --      0.2949                 0.3792                 0.8358
 IR Inten    --      0.0178                16.9224                 7.1909

                      7                      8                      9
                      A                      A                      A
 Frequencies --    626.4048               689.6839               749.4580
 Red. masses --      6.3526                 3.0598                 1.2305
 Frc consts  --      1.4686                 0.8575                 0.4072
 IR Inten    --      0.1456                 8.3078                52.6502

                     10                     11                     12
                      A                      A                      A
 Frequencies --    778.1621               828.8556               921.9519
 Red. masses --      5.0991                 1.2595                 1.2714
 Frc consts  --      1.8192                 0.5098                 0.6367
 IR Inten    --      1.2059                 0.0074                 0.0422

                     13                     14                     15
                      A                      A                      A
 Frequencies --    981.4199              1015.4431              1021.9455
 Red. masses --      1.3472                 3.8893                 1.5668
 Frc consts  --      0.7645                 2.3629                 0.9641
 IR Inten    --      0.0043                 5.3592                 7.7802

                     16                     17                     18
                      A                      A                      A
 Frequencies --   1028.8415              1049.6882              1085.4645
 Red. masses --      1.3254                 2.4496                 1.3549
 Frc consts  --      0.8266                 1.5902                 0.9406
 IR Inten    --      0.0715                 0.5633                26.7699

                     19                     20                     21
                      A                      A                      A
 Frequencies --   1125.4540              1163.3250              1206.2553
 Red. masses --      1.4586                 3.1508                 1.1041
 Frc consts  --      1.0886                 2.5123                 0.9466
 IR Inten    --      8.9076                 4.2789                 0.0278

                     22                     23                     24
                      A                      A                      A
 Frequencies --   1214.0413              1367.5322              1374.6688
 Red. masses --      1.1499                 2.8487                 1.7179
 Frc consts  --      0.9986                 3.1388                 1.9127
 IR Inten    --      0.1029                 6.2192                 2.6575

                     25                     26                     27
                      A                      A                      A
 Frequencies --   1517.4516              1530.5914              1550.6613
 Red. masses --      2.2473                 1.7465                 1.3382
 Frc consts  --      3.0488                 2.4107                 1.8959
 IR Inten    --      5.7238               106.5914                43.7166

                     28                     29                     30
                      A                      A                      A
 Frequencies --   1641.3773              1661.3459              1686.9405
 Red. masses --      5.1030                 2.9569                 1.0471
 Frc consts  --      8.1001                 4.8085                 1.7556
 IR Inten    --      0.0910                31.1553                57.7675

                     31                     32                     33
                      A                      A                      A
 Frequencies --   1703.5530              3194.2611              3195.9834
 Red. masses --      1.2889                 1.0916                 1.0916
 Frc consts  --      2.2039                 6.5626                 6.5692
 IR Inten    --     25.2256                 1.6235                 1.1498

                     34                     35                     36
                      A                      A                      A
 Frequencies --   3220.2392              3230.0900              3237.0917
 Red. masses --      1.0896                 1.0937                 1.0979
 Frc consts  --      6.6571                 6.7230                 6.7786
 IR Inten    --      0.2493                 0.1165                 0.0204

                     37                     38                     39
                      A                      A                      A
 Frequencies --   3372.2048              3448.9378              3472.6552
 Red. masses --      1.0327                 1.0918                 1.0930
 Frc consts  --      6.9193                 7.6519                 7.7657
 IR Inten    --     53.6690               106.9439                84.0329

 - Thermochemistry -
 -------------------
 Temperature     0.001 Kelvin.  Pressure   1.00000 Atm.
 Atom     1 has atomic number  7 and mass  14.00307

 Molecular mass:    94.06567 amu.
 Principal axes and moments of inertia in atomic units:
                           1         2         3
     Eigenvalues --   331.51866 731.676181053.27628
           X            1.00000  -0.00004  -0.00013
           Y            0.00004   1.00000   0.00000
           Z            0.00013  -0.00000   1.00000
 This molecule is an asymmetric top.
 Rotational symmetry number  1.
 Rotational temperatures (Kelvin)      0.26126     0.11838     0.08223
 Rotational constants (GHZ):           5.44386     2.46658     1.71345
 Zero-point vibrational energy     346060.1 (Joules/Mol)
                                   82.71036 (Kcal/Mol)
 Vibrational temperatures:     16.07   308.16   500.89   595.49   657.85
          (Kelvin)            748.38   901.26   992.30  1078.30  1119.60
                             1192.54  1326.48  1412.04  1461.00  1470.35
                             1480.27  1510.27  1561.74  1619.28  1673.77
                             1735.53  1746.73  1967.57  1977.84  2183.27
                             2202.18  2231.06  2361.58  2390.31  2427.13
                             2451.03  4595.83  4598.31  4633.21  4647.38
                             4657.45  4851.85  4962.25  4996.38

 Zero-point correction=                           0.131807 (Hartree/Particle)
 Thermal correction to Energy=                    0.131807
 Thermal correction to Enthalpy=                  0.131807
 Thermal correction to Gibbs Free Energy=         0.131807
 Sum of electronic and zero-point Energies=           -287.824031
 Sum of electronic and thermal Energies=              -287.824031
 Sum of electronic and thermal Enthalpies=            -287.824031
 Sum of electronic and thermal Free Energies=         -287.824031

                     E (Thermal)             CV                S
                      KCal/Mol        Cal/Mol-Kelvin    Cal/Mol-Kelvin
 Total                   82.710              5.962            -33.624
 Electronic               0.000              0.000              0.000
 Translational            0.000              2.981            -23.088
 Rotational               0.000              2.981            -10.536
 Vibrational             82.710              0.000              0.000

                           ! Non-Optimized Parameters !
 Normal termination of Gaussian 16 at Mon Oct 14 11:06:42 2019.
