 Gaussian 16, Revision A.03,
 Gaussian 16:  ES64L-G16RevA.03 25-Dec-2016

 --------------------------------------------------------------
 #P opt freq b3lyp/6-31g(d) geom=connectivity temperature=0.001
 --------------------------------------------------------------

 -------------------
 Title Card Required
 -------------------
 Symbolic Z-matrix:
 Charge =  1 Multiplicity = 1

 SCF Done:  E(RB3LYP) =  -289.312566031     A.U. after   13 cycles
 SCF Done:  E(RB3LYP) =  -289.326027477     A.U. after   12 cycles
 SCF Done:  E(RB3LYP) =  -289.328581498     A.U. after   11 cycles
 SCF Done:  E(RB3LYP) =  -289.329118883     A.U. after   10 cycles
 SCF Done:  E(RB3LYP) =  -289.329641998     A.U. after   11 cycles
 SCF Done:  E(RB3LYP) =  -289.330125776     A.U. after   12 cycles
 SCF Done:  E(RB3LYP) =  -289.330379189     A.U. after   10 cycles
 SCF Done:  E(RB3LYP) =  -289.330474924     A.U. after   10 cycles
 SCF Done:  E(RB3LYP) =  -289.330483027     A.U. after    9 cycles
 SCF Done:  E(RB3LYP) =  -289.330484009     A.U. after    9 cycles
 SCF Done:  E(RB3LYP) =  -289.330484418     A.U. after    7 cycles
 Optimization completed.
    -- Stationary point found.
 Normal termination of Gaussian 16 at Mon Oct 14 01:02:26 2019.

 --------------------------------------------------------------------
 #P Geom=AllCheck Guess=TCheck SCRF=Check GenChk RB3LYP/6-31G(d) Freq
 --------------------------------------------------------------------

 Structure from the checkpoint file:  "1_p.chk"
 -------------------
 Title Card Required
 -------------------
 Charge =  1 Multiplicity = 1

                         Standard orientation:
 ---------------------------------------------------------------------
 Center     Atomic      Atomic             Coordinates (Angstroms)
 Number     Number       Type             X           Y           Z
 ---------------------------------------------------------------------
      1          6           0        2.515147   -0.024311    0.312161
      2          6           0        1.281135   -0.685563   -0.279934
      3          7           0        0.000023    0.004971    0.156737
      4          8           0       -0.000113    1.380005   -0.196349
      5          6           0       -1.281029   -0.685772   -0.279660
      6          6           0       -2.515110   -0.024318    0.312049
      7          1           0        3.396611   -0.572616   -0.032927
      8          1           0        2.613664    1.015979   -0.004832
      9          1           0        2.509695   -0.065244    1.406878
     10          1           0        1.269593   -0.665171   -1.374312
     11          1           0        1.172271   -1.724808    0.044343
     12          1           0       -0.000510    1.401864   -1.175471
     13          1           0       -1.269438   -0.665889   -1.374043
     14          1           0       -1.172152   -1.724840    0.045186
     15          1           0       -3.396458   -0.573020   -0.032713
     16          1           0       -2.509680   -0.064617    1.406801
     17          1           0       -2.613822    1.015792   -0.005463
     18          1           0        0.000111    0.067523    1.182490
 ---------------------------------------------------------------------

 SCF Done:  E(RB3LYP) =  -289.330484418     A.U. after    1 cycles

 The electronic state is 1-A.
 Alpha  occ. eigenvalues --  -19.41240 -14.69767 -10.43062 -10.43061 -10.35235
 Alpha  occ. eigenvalues --  -10.35234  -1.32543  -1.11505  -0.97583  -0.92575
 Alpha  occ. eigenvalues --   -0.85511  -0.81453  -0.76654  -0.71776  -0.70892
 Alpha  occ. eigenvalues --   -0.64386  -0.63436  -0.60987  -0.58700  -0.55919
 Alpha  occ. eigenvalues --   -0.55274  -0.54967  -0.54107  -0.53530  -0.51763
 Alpha virt. eigenvalues --   -0.14982  -0.13467  -0.11025  -0.06837  -0.05884
 Alpha virt. eigenvalues --   -0.05511  -0.02358  -0.02270  -0.01866  -0.00807
 Alpha virt. eigenvalues --    0.00675   0.02100   0.02357   0.03110   0.03299

 Mulliken charges:
               1
     1  C   -0.474986
     2  C   -0.176603
     3  N   -0.252456
     4  O   -0.426983
     5  C   -0.176654
     6  C   -0.474956
     7  H    0.222491
     8  H    0.208384
     9  H    0.190500
    10  H    0.212922
    11  H    0.221519
    12  H    0.448893
    13  H    0.212927
    14  H    0.221528
    15  H    0.222485
    16  H    0.190504
    17  H    0.208364
    18  H    0.422119
 Sum of Mulliken charges =   1.00000

 Dipole moment (field-independent basis, Debye):
    X=             -0.0004    Y=             -1.5896    Z=             -0.8214  Tot=              1.7893
 Quadrupole moment (field-independent basis, Debye-Ang):
   XX=            -24.0951   YY=            -34.3332   ZZ=            -30.7033
   XY=             -0.0006   XZ=              0.0006   YZ=             -2.2889

  Exact polarizability:  61.528  -0.001  50.427   0.000  -0.869  47.627
 Approx polarizability:  69.349  -0.001  73.146   0.001  -2.011  68.689

                      1                      2                      3
                      A                      A                      A
 Frequencies --     94.0585               107.1960               202.7482
 Red. masses --      2.6668                 1.5384                 2.7363
 Frc consts  --      0.0139                 0.0104                 0.0663
 IR Inten    --      0.5263                 0.0057                 0.7023

                      4                      5                      6
                      A                      A                      A
 Frequencies --    217.9395               243.7013               304.1395
 Red. masses --      1.0947                 1.1542                 1.2345
 Frc consts  --      0.0306                 0.0404                 0.0673
 IR Inten    --      0.2526                 0.4855               148.5969

                      7                      8                      9
                      A                      A                      A
 Frequencies --    322.3234               392.7797               474.4536
 Red. masses --      2.5830                 3.2750                 2.3065
 Frc consts  --      0.1581                 0.2977                 0.3059
 IR Inten    --      3.3392                 0.3767                 4.7029

                     10                     11                     12
                      A                      A                      A
 Frequencies --    506.9434               775.7582               797.9070
 Red. masses --      2.8465                 2.0502                 1.1801
 Frc consts  --      0.4310                 0.7269                 0.4427
 IR Inten    --     24.6672                 0.8377                 0.1797

                     13                     14                     15
                      A                      A                      A
 Frequencies --    847.1306               916.1315               972.9956
 Red. masses --      1.2921                 2.9650                 2.5205
 Frc consts  --      0.5463                 1.4662                 1.4059
 IR Inten    --     12.2360                 0.6805                23.2782

                     16                     17                     18
                      A                      A                      A
 Frequencies --    996.5206              1040.0934              1072.4604
 Red. masses --      2.0266                 4.1420                 1.6679
 Frc consts  --      1.1857                 2.6400                 1.1303
 IR Inten    --     21.5098                 1.3446                19.0332

                     19                     20                     21
                      A                      A                      A
 Frequencies --   1160.8115              1169.3485              1184.6686
 Red. masses --      1.7265                 2.2487                 1.5100
 Frc consts  --      1.3707                 1.8116                 1.2486
 IR Inten    --      1.4291                 1.4310                25.8601

                     22                     23                     24
                      A                      A                      A
 Frequencies --   1293.2747              1301.5262              1352.0612
 Red. masses --      1.1800                 1.1499                 1.2166
 Frc consts  --      1.1628                 1.1476                 1.3104
 IR Inten    --      2.9747                23.8573                 0.0442

                     25                     26                     27
                      A                      A                      A
 Frequencies --   1419.3869              1429.0959              1433.6152
 Red. masses --      1.2893                 1.2063                 1.2428
 Frc consts  --      1.5303                 1.4516                 1.5050
 IR Inten    --      0.6363                56.9136                51.0176

                     28                     29                     30
                      A                      A                      A
 Frequencies --   1450.9210              1457.0959              1504.1866
 Red. masses --      1.1968                 1.2469                 1.0844
 Frc consts  --      1.4844                 1.5597                 1.4456
 IR Inten    --      7.2824                 5.5722                 6.0092

                     31                     32                     33
                      A                      A                      A
 Frequencies --   1513.3456              1518.7273              1519.1693
 Red. masses --      1.0541                 1.0420                 1.0474
 Frc consts  --      1.4224                 1.4161                 1.4242
 IR Inten    --     15.0050                 1.5289                18.9630

                     34                     35                     36
                      A                      A                      A
 Frequencies --   1525.7799              1526.2652              1561.7540
 Red. masses --      1.0706                 1.0590                 1.1388
 Frc consts  --      1.4684                 1.4535                 1.6365
 IR Inten    --     21.7451                 4.8713                14.4602

                     37                     38                     39
                      A                      A                      A
 Frequencies --   3074.1353              3074.3993              3088.4758
 Red. masses --      1.0399                 1.0396                 1.0585
 Frc consts  --      5.7902                 5.7895                 5.9486
 IR Inten    --      0.0350                 3.7248                 3.8153

                     40                     41                     42
                      A                      A                      A
 Frequencies --   3096.3707              3136.7145              3141.2661
 Red. masses --      1.0599                 1.1059                 1.1031
 Frc consts  --      5.9872                 6.4110                 6.4130
 IR Inten    --      5.1142                 0.0003                 1.3389

                     43                     44                     45
                      A                      A                      A
 Frequencies --   3149.8849              3152.7957              3172.2114
 Red. masses --      1.1043                 1.1062                 1.1041
 Frc consts  --      6.4556                 6.4787                 6.5459
 IR Inten    --      0.0305                 5.3942                 0.5453

                     46                     47                     48
                      A                      A                      A
 Frequencies --   3173.2835              3425.0607              3652.3366
 Red. masses --      1.1040                 1.0792                 1.0679
 Frc consts  --      6.5498                 7.4589                 8.3928
 IR Inten    --      4.5994                44.8293                71.6264

 - Thermochemistry -
 -------------------
 Temperature     0.001 Kelvin.  Pressure   1.00000 Atm.
 Atom     1 has atomic number  6 and mass  12.00000

 Molecular mass:    90.09189 amu.
 Principal axes and moments of inertia in atomic units:
                           1         2         3
     Eigenvalues --   246.73733 938.216581072.24484
           X            1.00000  -0.00000   0.00000
           Y            0.00000   1.00000  -0.00139
           Z           -0.00000   0.00139   1.00000
 This molecule is an asymmetric top.
 Rotational symmetry number  1.
 Rotational temperatures (Kelvin)      0.35104     0.09232     0.08078
 Rotational constants (GHZ):           7.31442     1.92359     1.68314
 Zero-point vibrational energy     442278.8 (Joules/Mol)
                                  105.70718 (Kcal/Mol)
 Vibrational temperatures:    135.33   154.23   291.71   313.57   350.63
          (Kelvin)            437.59   463.75   565.12   682.63   729.38
                             1116.14  1148.01  1218.83  1318.11  1399.92
                             1433.77  1496.46  1543.03  1670.15  1682.43
                             1704.47  1860.73  1872.61  1945.31  2042.18
                             2056.15  2062.65  2087.55  2096.44  2164.19
                             2177.37  2185.11  2185.75  2195.26  2195.96
                             2247.02  4423.00  4423.37  4443.63  4454.99
                             4513.03  4519.58  4531.98  4536.17  4564.10
                             4565.65  4927.90  5254.90

 Zero-point correction=                           0.168455 (Hartree/Particle)
 Thermal correction to Energy=                    0.168455
 Thermal correction to Enthalpy=                  0.168455
 Thermal correction to Gibbs Free Energy=         0.168455
 Sum of electronic and zero-point Energies=           -289.162029
 Sum of electronic and thermal Energies=              -289.162029
 Sum of electronic and thermal Enthalpies=            -289.162029
 Sum of electronic and thermal Free Energies=         -289.162029

                     E (Thermal)             CV                S
                      KCal/Mol        Cal/Mol-Kelvin    Cal/Mol-Kelvin
 Total                  105.707              5.962            -33.782
 Electronic               0.000              0.000              0.000
 Translational            0.000              2.981            -23.217
 Rotational               0.000              2.981            -10.565
 Vibrational            105.707              0.000              0.000

 Optimization completed.
    -- Stationary point found.
 Normal termination of Gaussian 16 at Mon Oct 14 01:02:40 2019.
