 Gaussian 16, Revision A.03,
 Gaussian 16:  ES64L-G16RevA.03 25-Dec-2016

 --------------------------------------------------------------
 #P opt freq b3lyp/6-31g(d) geom=connectivity temperature=0.001
 --------------------------------------------------------------

 -------------------
 Title Card Required
 -------------------
 Symbolic Z-matrix:
 Charge =  0 Multiplicity = 1

 SCF Done:  E(RB3LYP) =  -607.555847071     A.U. after   17 cycles
 SCF Done:  E(RB3LYP) =  -607.602621380     A.U. after   14 cycles
 SCF Done:  E(RB3LYP) =  -607.618711974     A.U. after   14 cycles
 SCF Done:  E(RB3LYP) =  -607.625168393     A.U. after   14 cycles
 SCF Done:  E(RB3LYP) =  -607.631537887     A.U. after   15 cycles
 SCF Done:  E(RB3LYP) =  -607.634825569     A.U. after   13 cycles
 SCF Done:  E(RB3LYP) =  -607.641143138     A.U. after   14 cycles
 SCF Done:  E(RB3LYP) =  -607.645286162     A.U. after   13 cycles
 SCF Done:  E(RB3LYP) =  -607.650014670     A.U. after   15 cycles
 SCF Done:  E(RB3LYP) =  -607.651179036     A.U. after   12 cycles
 SCF Done:  E(RB3LYP) =  -607.651566060     A.U. after   12 cycles
 SCF Done:  E(RB3LYP) =  -607.651628551     A.U. after   12 cycles
 SCF Done:  E(RB3LYP) =  -607.651644899     A.U. after   11 cycles
 SCF Done:  E(RB3LYP) =  -607.651649089     A.U. after    9 cycles
 SCF Done:  E(RB3LYP) =  -607.651649786     A.U. after    8 cycles
 SCF Done:  E(RB3LYP) =  -607.651649904     A.U. after    7 cycles
 Optimization completed.
    -- Stationary point found.
 Normal termination of Gaussian 16 at Mon Oct 14 01:42:31 2019.

 --------------------------------------------------------------------
 #P Geom=AllCheck Guess=TCheck SCRF=Check GenChk RB3LYP/6-31G(d) Freq
 --------------------------------------------------------------------

 Structure from the checkpoint file:  "2.chk"
 -------------------
 Title Card Required
 -------------------
 Charge =  0 Multiplicity = 1

                         Standard orientation:
 ---------------------------------------------------------------------
 Center     Atomic      Atomic             Coordinates (Angstroms)
 Number     Number       Type             X           Y           Z
 ---------------------------------------------------------------------
      1          8           0        0.076178    3.060284    0.000166
      2          7           0        1.062619    2.082441    0.000160
      3          6           0        0.558248    0.899590   -0.000115
      4          6           0        1.424882   -0.319947   -0.000049
      5          8           0        2.748175   -0.201765   -0.000202
      6          6           0        3.481397   -1.437064   -0.000025
      7          7           0        0.763175   -1.431120    0.000119
      8          6           0       -0.607732   -1.056466    0.000102
      9          6           0       -1.694174   -1.918146    0.000194
     10          6           0       -2.981007   -1.358429    0.000068
     11          6           0       -3.172505    0.025814   -0.000149
     12          6           0       -2.075924    0.899231   -0.000242
     13          6           0       -0.798363    0.347829   -0.000101
     14          1           0        0.592739    3.882518    0.000456
     15          1           0        4.533227   -1.150108    0.001270
     16          1           0        3.237031   -2.024814    0.889279
     17          1           0        3.239026   -2.023798   -0.890563
     18          1           0       -1.543081   -2.993086    0.000356
     19          1           0       -3.845743   -2.016959    0.000125
     20          1           0       -4.180431    0.430665   -0.000259
     21          1           0       -2.217079    1.973704   -0.000415
 ---------------------------------------------------------------------

 SCF Done:  E(RB3LYP) =  -607.651649904     A.U. after    1 cycles

 The electronic state is 1-A.
 Alpha  occ. eigenvalues --  -19.21247 -19.19865 -14.40612 -14.32032 -10.28726
 Alpha  occ. eigenvalues --  -10.24154 -10.24007 -10.21738 -10.19583 -10.19415
 Alpha  occ. eigenvalues --  -10.19390 -10.18731 -10.18701  -1.10562  -1.09164
 Alpha  occ. eigenvalues --   -0.95181  -0.87349  -0.84037  -0.75424  -0.74158
 Alpha  occ. eigenvalues --   -0.72483  -0.66665  -0.60595  -0.59478  -0.55925
 Alpha  occ. eigenvalues --   -0.53235  -0.50916  -0.50126  -0.48180  -0.48029
 Alpha  occ. eigenvalues --   -0.44673  -0.43684  -0.43382  -0.42807  -0.41236
 Alpha  occ. eigenvalues --   -0.39682  -0.37235  -0.35818  -0.35711  -0.34831
 Alpha  occ. eigenvalues --   -0.30374  -0.29800  -0.28964  -0.27074  -0.24021
 Alpha  occ. eigenvalues --   -0.21692
 Alpha virt. eigenvalues --   -0.07447  -0.00248   0.03753   0.05745   0.09999
 Alpha virt. eigenvalues --    0.10707   0.11628   0.12137   0.14066   0.15084
 Alpha virt. eigenvalues --    0.16027   0.17164   0.18210   0.18684   0.18841

 Mulliken charges:
               1
     1  O   -0.476681
     2  N   -0.285793
     3  C    0.220258
     4  C    0.574865
     5  O   -0.479498
     6  C   -0.216462
     7  N   -0.574927
     8  C    0.227835
     9  C   -0.188107
    10  C   -0.128544
    11  C   -0.144839
    12  C   -0.183583
    13  C    0.153391
    14  H    0.428447
    15  H    0.167776
    16  H    0.174311
    17  H    0.174237
    18  H    0.139980
    19  H    0.132443
    20  H    0.129651
    21  H    0.155239
 Sum of Mulliken charges =  -0.00000

 Dipole moment (field-independent basis, Debye):
    X=              0.3308    Y=              0.9153    Z=              0.0004  Tot=              0.9732
 Quadrupole moment (field-independent basis, Debye-Ang):
   XX=            -62.9960   YY=            -62.0595   ZZ=            -75.4101
   XY=             -1.7714   XZ=              0.0013   YZ=              0.0013

  Exact polarizability: 162.718  11.524 140.827   0.001  -0.000  44.539
 Approx polarizability: 253.047  34.885 257.458   0.002  -0.005  68.770

                      1                      2                      3
                      A                      A                      A
 Frequencies --     93.4330               103.9465               144.5451
 Red. masses --      3.8544                 4.0321                 1.5354
 Frc consts  --      0.0198                 0.0257                 0.0189
 IR Inten    --      2.7343                 3.3354                 0.0462

                      4                      5                      6
                      A                      A                      A
 Frequencies --    167.6680               177.0773               184.2951
 Red. masses --      5.0962                 2.0820                 4.0284
 Frc consts  --      0.0844                 0.0385                 0.0806
 IR Inten    --      2.4369                 0.0622                 1.4531

                      7                      8                      9
                      A                      A                      A
 Frequencies --    267.2746               305.6890               357.7485
 Red. masses --      9.6363                 5.9194                 4.4898
 Frc consts  --      0.4056                 0.3259                 0.3386
 IR Inten    --      6.9921                 0.9630                 5.9271

                     10                     11                     12
                      A                      A                      A
 Frequencies --    402.9337               403.3621               466.7527
 Red. masses --      7.0999                 2.8314                 1.5916
 Frc consts  --      0.6792                 0.2714                 0.2043
 IR Inten    --      1.7417                11.6973                42.0860

                     13                     14                     15
                      A                      A                      A
 Frequencies --    488.9150               544.0971               565.0980
 Red. masses --      7.0612                 2.6858                 7.3925
 Frc consts  --      0.9945                 0.4685                 1.3909
 IR Inten    --     11.1921                50.6203                 1.2426

                     16                     17                     18
                      A                      A                      A
 Frequencies --    610.7396               651.8802               720.4609
 Red. masses --      4.4375                 7.7892                 4.6265
 Frc consts  --      0.9752                 1.9502                 1.4149
 IR Inten    --     26.4902                 4.2715                 2.1136

                     19                     20                     21
                      A                      A                      A
 Frequencies --    735.9348               761.1686               770.9573
 Red. masses --      6.0218                 6.0049                 3.4196
 Frc consts  --      1.9216                 2.0498                 1.1975
 IR Inten    --      6.1522                15.8243                18.2640

                     22                     23                     24
                      A                      A                      A
 Frequencies --    780.2030               890.8700               898.3555
 Red. masses --      1.7062                 1.3851                 6.6640
 Frc consts  --      0.6119                 0.6477                 3.1687
 IR Inten    --     31.1369                 0.9080                11.2390

                     25                     26                     27
                      A                      A                      A
 Frequencies --    948.2203               973.5258               983.3194
 Red. masses --      1.3761                 6.9996                 1.2610
 Frc consts  --      0.7290                 3.9086                 0.7184
 IR Inten    --      2.4195                 2.6636                 0.0369

                     28                     29                     30
                      A                      A                      A
 Frequencies --   1024.3504              1045.3803              1086.5747
 Red. masses --     10.5169                 2.3824                 4.4414
 Frc consts  --      6.5018                 1.5340                 3.0895
 IR Inten    --    245.7484                16.1452               108.8547

                     31                     32                     33
                      A                      A                      A
 Frequencies --   1118.5812              1184.0431              1184.8314
 Red. masses --      2.1142                 1.2748                 1.2678
 Frc consts  --      1.5586                 1.0530                 1.0486
 IR Inten    --     26.4528                 6.1837                 0.7498

                     34                     35                     36
                      A                      A                      A
 Frequencies --   1205.1196              1215.6654              1250.1977
 Red. masses --      2.1375                 1.7653                 3.1877
 Frc consts  --      1.8291                 1.5371                 2.9355
 IR Inten    --     24.9809                32.9405                 0.0639

                     37                     38                     39
                      A                      A                      A
 Frequencies --   1314.4458              1377.2126              1404.3799
 Red. masses --      1.7581                 3.4400                 2.1995
 Frc consts  --      1.7897                 3.8442                 2.5559
 IR Inten    --     83.5278                40.1359                 4.9482

                     40                     41                     42
                      A                      A                      A
 Frequencies --   1437.3044              1488.2689              1495.1764
 Red. masses --      1.7543                 1.7504                 2.0388
 Frc consts  --      2.1352                 2.2843                 2.6854
 IR Inten    --    299.6085                52.3057                33.5905

                     43                     44                     45
                      A                      A                      A
 Frequencies --   1508.0679              1520.3218              1523.2390
 Red. masses --      1.0479                 2.4703                 1.0723
 Frc consts  --      1.4041                 3.3641                 1.4660
 IR Inten    --      6.5002                 5.2741                14.3816

                     46                     47                     48
                      A                      A                      A
 Frequencies --   1637.3338              1643.0206              1677.3373
 Red. masses --      7.5544                 6.0637                 7.4285
 Frc consts  --     11.9323                 9.6444                12.3137
 IR Inten    --    399.6719                56.2763                24.1379

                     49                     50                     51
                      A                      A                      A
 Frequencies --   1724.6496              3071.3209              3145.4198
 Red. masses --      7.7816                 1.0294                 1.1075
 Frc consts  --     13.6370                 5.7214                 6.4556
 IR Inten    --      6.8097                42.2140                20.0330

                     52                     53                     54
                      A                      A                      A
 Frequencies --   3182.7805              3186.5371              3203.5576
 Red. masses --      1.1071                 1.0864                 1.0917
 Frc consts  --      6.6077                 6.4996                 6.6012
 IR Inten    --     19.7959                 4.3660                22.0854

                     55                     56                     57
                      A                      A                      A
 Frequencies --   3216.5161              3239.0357              3740.8933
 Red. masses --      1.0944                 1.0930                 1.0677
 Frc consts  --      6.6709                 6.7561                 8.8037
 IR Inten    --     15.3896                 5.5789               126.0895

 - Thermochemistry -
 -------------------
 Temperature     0.001 Kelvin.  Pressure   1.00000 Atm.
 Atom     1 has atomic number  8 and mass  15.99491

 Molecular mass:   176.05858 amu.
 Principal axes and moments of inertia in atomic units:
                           1         2         3
     Eigenvalues --  1462.942752599.816374051.35801
           X            0.99953  -0.03063   0.00000
           Y            0.03063   0.99953  -0.00000
           Z           -0.00000   0.00000   1.00000
 This molecule is an asymmetric top.
 Rotational symmetry number  1.
 Warning -- assumption of classical behavior for rotation
           may cause significant error
 Rotational temperatures (Kelvin)      0.05921     0.03332     0.02138
 Rotational constants (GHZ):           1.23364     0.69418     0.44547
 Zero-point vibrational energy     421384.8 (Joules/Mol)
                                  100.71338 (Kcal/Mol)
 Vibrational temperatures:    134.43   149.56   207.97   241.24   254.77
          (Kelvin)            265.16   384.55   439.82   514.72   579.73
                              580.35   671.55   703.44   782.83   813.05
                              878.72   937.91  1036.58  1058.85  1095.15
                             1109.24  1122.54  1281.76  1292.53  1364.28
                             1400.69  1414.78  1473.81  1504.07  1563.34
                             1609.39  1703.57  1704.71  1733.90  1749.07
                             1798.76  1891.19  1981.50  2020.59  2067.96
                             2141.29  2151.23  2169.77  2187.40  2191.60
                             2355.76  2363.94  2413.31  2481.39  4418.95
                             4525.56  4579.31  4584.72  4609.20  4627.85
                             4660.25  5382.31

 Zero-point correction=                           0.160497 (Hartree/Particle)
 Thermal correction to Energy=                    0.160497
 Thermal correction to Enthalpy=                  0.160497
 Thermal correction to Gibbs Free Energy=         0.160497
 Sum of electronic and zero-point Energies=           -607.491153
 Sum of electronic and thermal Energies=              -607.491153
 Sum of electronic and thermal Enthalpies=            -607.491153
 Sum of electronic and thermal Free Energies=         -607.491153

                     E (Thermal)             CV                S
                      KCal/Mol        Cal/Mol-Kelvin    Cal/Mol-Kelvin
 Total                  100.713              5.962            -27.683
 Electronic               0.000              0.000              0.000
 Translational            0.000              2.981            -21.219
 Rotational               0.000              2.981             -6.463
 Vibrational            100.713              0.000              0.000

                           ! Non-Optimized Parameters !
 Normal termination of Gaussian 16 at Mon Oct 14 01:43:12 2019.
