 Gaussian 16, Revision A.03,
 Gaussian 16:  ES64L-G16RevA.03 25-Dec-2016

 --------------------------------------------------------------
 #P opt freq b3lyp/6-31g(d) geom=connectivity temperature=0.001
 --------------------------------------------------------------

 -------------------
 Title Card Required
 -------------------
 Symbolic Z-matrix:
 Charge =  0 Multiplicity = 1

 SCF Done:  E(RB3LYP) =  -233.642854325     A.U. after   12 cycles
 SCF Done:  E(RB3LYP) =  -233.656663797     A.U. after   11 cycles
 SCF Done:  E(RB3LYP) =  -233.660263241     A.U. after   10 cycles
 SCF Done:  E(RB3LYP) =  -233.660871550     A.U. after   10 cycles
 SCF Done:  E(RB3LYP) =  -233.660981008     A.U. after   10 cycles
 SCF Done:  E(RB3LYP) =  -233.661033805     A.U. after    9 cycles
 SCF Done:  E(RB3LYP) =  -233.661070727     A.U. after   10 cycles
 SCF Done:  E(RB3LYP) =  -233.661073564     A.U. after    9 cycles
 SCF Done:  E(RB3LYP) =  -233.661073738     A.U. after    7 cycles
 Optimization completed.
    -- Stationary point found.

 1\1\GINC-BROWN-A429\FOpt\RB3LYP\6-31G(d)\C4H10O1\FINEJ\14-Oct-2019\0\\
 #P opt freq b3lyp/6-31g(d) geom=connectivity temperature=0.001\\Title
 Card Required\\0,1\C,2.2496459799,-0.7382601997,-1.2472094132\C,2.4010
 563762,-0.000391972,0.0870292546\C,1.9426321107,1.4611575072,0.0163633
 831\C,2.0910610531,2.1996856571,1.3401343289\O,1.6372920041,3.53710996
 39,1.1528901014\H,2.5838082858,-1.779026417,-1.1685686307\H,1.20391058
 63,-0.7471322555,-1.5778040742\H,2.8408951644,-0.2560974814,-2.0351679
 392\H,1.8263176809,-0.5273572343,0.8620703685\H,3.4519260681,-0.039440

 Normal termination of Gaussian 16 at Mon Oct 14 01:03:41 2019.

 --------------------------------------------------------------------
 #P Geom=AllCheck Guess=TCheck SCRF=Check GenChk RB3LYP/6-31G(d) Freq
 --------------------------------------------------------------------

 Structure from the checkpoint file:  "20.chk"
 -------------------
 Title Card Required
 -------------------
 Charge =  0 Multiplicity = 1

                         Standard orientation:
 ---------------------------------------------------------------------
 Center     Atomic      Atomic             Coordinates (Angstroms)
 Number     Number       Type             X           Y           Z
 ---------------------------------------------------------------------
      1          6           0       -2.520109   -0.296416    0.000021
      2          6           0       -1.229531    0.529403   -0.000031
      3          6           0        0.034601   -0.338492   -0.000035
      4          6           0        1.320763    0.477358    0.000044
      5          8           0        2.419164   -0.429938    0.000026
      6          1           0       -3.406786    0.347669   -0.000158
      7          1           0       -2.576250   -0.942521   -0.884474
      8          1           0       -2.576402   -0.942241    0.884711
      9          1           0       -1.219935    1.190330   -0.878547
     10          1           0       -1.219902    1.190369    0.878460
     11          1           0        0.040954   -0.995519    0.879897
     12          1           0        0.041002   -0.995450   -0.880014
     13          1           0        1.346994    1.132123   -0.887638
     14          1           0        1.346908    1.132003    0.887817
     15          1           0        3.235759    0.091630   -0.000253
 ---------------------------------------------------------------------

 SCF Done:  E(RB3LYP) =  -233.661073738     A.U. after    1 cycles

 The electronic state is 1-A.
 Alpha  occ. eigenvalues --  -19.13684 -10.22523 -10.18103 -10.17399 -10.17234
 Alpha  occ. eigenvalues --   -1.00838  -0.78837  -0.71383  -0.62051  -0.57639
 Alpha  occ. eigenvalues --   -0.50106  -0.47551  -0.42748  -0.42388  -0.39469
 Alpha  occ. eigenvalues --   -0.36169  -0.35087  -0.33248  -0.32439  -0.31613
 Alpha  occ. eigenvalues --   -0.26110
 Alpha virt. eigenvalues --    0.07801   0.09460   0.12866   0.13143   0.14886
 Alpha virt. eigenvalues --    0.17667   0.18531   0.18691   0.19597   0.20461
 Alpha virt. eigenvalues --    0.20948   0.25077   0.26255   0.28412   0.50856

 Mulliken charges:
               1
     1  C   -0.439647
     2  C   -0.255717
     3  C   -0.253057
     4  C   -0.027612
     5  O   -0.620065
     6  H    0.141738
     7  H    0.143908
     8  H    0.143909
     9  H    0.131037
    10  H    0.131036
    11  H    0.143170
    12  H    0.143167
    13  H    0.114289
    14  H    0.114292
    15  H    0.389552
 Sum of Mulliken charges =  -0.00000

 Dipole moment (field-independent basis, Debye):
    X=              0.1509    Y=              1.5151    Z=             -0.0005  Tot=              1.5226
 Quadrupole moment (field-independent basis, Debye-Ang):
   XX=            -29.7099   YY=            -33.9051   ZZ=            -32.9357
   XY=              3.9602   XZ=             -0.0018   YZ=             -0.0002

  Exact polarizability:  56.225   0.645  44.370  -0.001  -0.000  41.951
 Approx polarizability:  63.161  -0.725  61.543  -0.002  -0.000  59.411

                      1                      2                      3
                      A                      A                      A
 Frequencies --    110.3112               115.8319               185.8957
 Red. masses --      1.8961                 2.4511                 3.0536
 Frc consts  --      0.0136                 0.0194                 0.0622
 IR Inten    --      3.7989                 2.8284                 2.4437

                      4                      5                      6
                      A                      A                      A
 Frequencies --    251.1302               283.0363               394.7191
 Red. masses --      1.1197                 1.0835                 3.1739
 Frc consts  --      0.0416                 0.0511                 0.2914
 IR Inten    --      1.2347               121.9305                 0.1014

                      7                      8                      9
                      A                      A                      A
 Frequencies --    439.3373               753.4484               823.1360
 Red. masses --      3.6063                 1.0716                 1.1294
 Frc consts  --      0.4101                 0.3584                 0.4508
 IR Inten    --     12.8095                 1.9728                 1.4274

                     10                     11                     12
                      A                      A                      A
 Frequencies --    912.5992               965.6211              1008.3198
 Red. masses --      1.8190                 1.1412                 3.3492
 Frc consts  --      0.8926                 0.6269                 2.0063
 IR Inten    --     13.4129                 0.0730                 1.0090

                     13                     14                     15
                      A                      A                      A
 Frequencies --   1065.7783              1078.2071              1126.7582
 Red. masses --      2.2398                 4.1709                 1.9224
 Frc consts  --      1.4989                 2.8568                 1.4380
 IR Inten    --     25.9095                61.8042                 1.9710

                     16                     17                     18
                      A                      A                      A
 Frequencies --   1201.7642              1259.1386              1262.2609
 Red. masses --      1.5876                 1.2653                 1.3166
 Frc consts  --      1.3509                 1.1820                 1.2360
 IR Inten    --      2.3272                50.3480                 0.1274

                     19                     20                     21
                      A                      A                      A
 Frequencies --   1329.4275              1331.8362              1339.5473
 Red. masses --      1.1411                 1.3227                 1.0784
 Frc consts  --      1.1882                 1.3824                 1.1401
 IR Inten    --      1.0068                19.2435                 0.0286

                     22                     23                     24
                      A                      A                      A
 Frequencies --   1412.0889              1441.5395              1481.5082
 Red. masses --      1.5242                 1.2493                 1.4831
 Frc consts  --      1.7907                 1.5295                 1.9179
 IR Inten    --      3.8724                 1.4942                 9.8177

                     25                     26                     27
                      A                      A                      A
 Frequencies --   1519.3020              1527.0097              1529.8624
 Red. masses --      1.0652                 1.0750                 1.0408
 Frc consts  --      1.4486                 1.4769                 1.4353
 IR Inten    --      0.2433                 0.5230                 5.9106

                     28                     29                     30
                      A                      A                      A
 Frequencies --   1540.2590              1559.0501              2973.3622
 Red. masses --      1.0801                 1.0904                 1.0544
 Frc consts  --      1.5098                 1.5615                 5.4924
 IR Inten    --      4.3867                 3.1309                57.7338

                     31                     32                     33
                      A                      A                      A
 Frequencies --   2997.4462              3023.2997              3040.4519
 Red. masses --      1.1075                 1.0594                 1.0498
 Frc consts  --      5.8627                 5.7050                 5.7177
 IR Inten    --     62.0963                25.7323                20.0516

                     34                     35                     36
                      A                      A                      A
 Frequencies --   3044.8779              3048.9199              3084.8447
 Red. masses --      1.0448                 1.1024                 1.1056
 Frc consts  --      5.7073                 6.0376                 6.1992
 IR Inten    --     53.9245                 7.0823                42.1836

                     37                     38                     39
                      A                      A                      A
 Frequencies --   3109.2764              3112.5034              3751.6408
 Red. masses --      1.1030                 1.1021                 1.0664
 Frc consts  --      6.2826                 6.2908                 8.8432
 IR Inten    --     69.9809                42.3991                 9.5416

 - Thermochemistry -
 -------------------
 Temperature     0.001 Kelvin.  Pressure   1.00000 Atm.
 Atom     1 has atomic number  6 and mass  12.00000

 Molecular mass:    74.07317 amu.
 Principal axes and moments of inertia in atomic units:
                           1         2         3
     Eigenvalues --    96.54995 918.53229 970.21479
           X            0.99986   0.01701  -0.00000
           Y           -0.01701   0.99986   0.00000
           Z            0.00000  -0.00000   1.00000
 This molecule is an asymmetric top.
 Rotational symmetry number  1.
 Rotational temperatures (Kelvin)      0.89709     0.09430     0.08927
 Rotational constants (GHZ):          18.69231     1.96481     1.86015
 Zero-point vibrational energy     361483.7 (Joules/Mol)
                                   86.39667 (Kcal/Mol)
 Vibrational temperatures:    158.71   166.66   267.46   361.32   407.23
          (Kelvin)            567.91   632.11  1084.04  1184.31  1313.03
                             1389.31  1450.75  1533.42  1551.30  1621.15
                             1729.07  1811.62  1816.11  1912.75  1916.22
                             1927.31  2031.68  2074.05  2131.56  2185.94
                             2197.03  2201.13  2216.09  2243.13  4278.00
                             4312.66  4349.85  4374.53  4380.90  4386.72
                             4438.40  4473.56  4478.20  5397.77

 Zero-point correction=                           0.137682 (Hartree/Particle)
 Thermal correction to Energy=                    0.137682
 Thermal correction to Enthalpy=                  0.137682
 Thermal correction to Gibbs Free Energy=         0.137682
 Sum of electronic and zero-point Energies=           -233.523392
 Sum of electronic and thermal Energies=              -233.523392
 Sum of electronic and thermal Enthalpies=            -233.523392
 Sum of electronic and thermal Free Energies=         -233.523392

                     E (Thermal)             CV                S
                      KCal/Mol        Cal/Mol-Kelvin    Cal/Mol-Kelvin
 Total                   86.397              5.962            -35.418
 Electronic               0.000              0.000              0.000
 Translational            0.000              2.981            -23.800
 Rotational               0.000              2.981            -11.618
 Vibrational             86.397              0.000              0.000

 Optimization completed.
    -- Stationary point found.

 1\1\GINC-BROWN-A429\Freq\RB3LYP\6-31G(d)\C4H10O1\FINEJ\14-Oct-2019\0\\
 #P Geom=AllCheck Guess=TCheck SCRF=Check GenChk RB3LYP/6-31G(d) Freq\\
 Title Card Required\\0,1\C,2.2496459799,-0.7382601997,-1.2472094132\C,
 2.4010563762,-0.000391972,0.0870292546\C,1.9426321107,1.4611575072,0.0
 163633831\C,2.0910610531,2.1996856571,1.3401343289\O,1.6372920041,3.53
 71099639,1.1528901014\H,2.5838082858,-1.779026417,-1.1685686307\H,1.20
 39105863,-0.7471322555,-1.5778040742\H,2.8408951644,-0.2560974814,-2.0
 351679392\H,1.8263176809,-0.5273572343,0.8620703685\H,3.4519260681,-0.

 Normal termination of Gaussian 16 at Mon Oct 14 01:03:50 2019.
