 Gaussian 16, Revision A.03,
 Gaussian 16:  ES64L-G16RevA.03 25-Dec-2016

 --------------------------------------------------------------
 #P opt freq b3lyp/6-31g(d) geom=connectivity temperature=0.001
 --------------------------------------------------------------

 -------------------
 Title Card Required
 -------------------
 Symbolic Z-matrix:
 Charge =  1 Multiplicity = 1

 SCF Done:  E(RB3LYP) =  -233.951496518     A.U. after   12 cycles
 SCF Done:  E(RB3LYP) =  -233.969886667     A.U. after   11 cycles
 SCF Done:  E(RB3LYP) =  -233.974930357     A.U. after   11 cycles
 SCF Done:  E(RB3LYP) =  -233.975659593     A.U. after   10 cycles
 SCF Done:  E(RB3LYP) =  -233.975835068     A.U. after   10 cycles
 SCF Done:  E(RB3LYP) =  -233.975871790     A.U. after    9 cycles
 SCF Done:  E(RB3LYP) =  -233.975889495     A.U. after    9 cycles
 SCF Done:  E(RB3LYP) =  -233.975892095     A.U. after    8 cycles
 SCF Done:  E(RB3LYP) =  -233.975895162     A.U. after    9 cycles
 SCF Done:  E(RB3LYP) =  -233.975898684     A.U. after    8 cycles
 SCF Done:  E(RB3LYP) =  -233.975900084     A.U. after    8 cycles
 SCF Done:  E(RB3LYP) =  -233.975900131     A.U. after    7 cycles
 Optimization completed.
    -- Stationary point found.
 Normal termination of Gaussian 16 at Mon Oct 14 01:08:30 2019.

 --------------------------------------------------------------------
 #P Geom=AllCheck Guess=TCheck SCRF=Check GenChk RB3LYP/6-31G(d) Freq
 --------------------------------------------------------------------

 Structure from the checkpoint file:  "20_p.chk"
 -------------------
 Title Card Required
 -------------------
 Charge =  1 Multiplicity = 1

                         Standard orientation:
 ---------------------------------------------------------------------
 Center     Atomic      Atomic             Coordinates (Angstroms)
 Number     Number       Type             X           Y           Z
 ---------------------------------------------------------------------
      1          6           0       -2.580971   -0.334315   -0.011931
      2          6           0       -1.319431    0.535399    0.024590
      3          6           0       -0.034342   -0.329226   -0.023285
      4          6           0        1.173949    0.564167    0.024051
      5          8           0        2.454101   -0.346710   -0.084896
      6          1           0       -3.473142    0.297481    0.018582
      7          1           0       -2.625931   -0.933963   -0.927342
      8          1           0       -2.622781   -1.014375    0.845818
      9          1           0       -1.320811    1.227746   -0.826307
     10          1           0       -1.315928    1.147063    0.935466
     11          1           0       -0.034351   -1.016326    0.834207
     12          1           0       -0.021997   -0.924162   -0.943326
     13          1           0        1.298443    1.203010   -0.849994
     14          1           0        1.301890    1.119307    0.954922
     15          1           0        3.303135    0.140015   -0.002074
     16          1           0        2.443434   -1.088264    0.558667
 ---------------------------------------------------------------------

 SCF Done:  E(RB3LYP) =  -233.975900131     A.U. after    1 cycles

 The electronic state is 1-A.
 Alpha  occ. eigenvalues --  -19.50280 -10.47479 -10.37233 -10.34052 -10.30163
 Alpha  occ. eigenvalues --   -1.35783  -0.99661  -0.90792  -0.86652  -0.81779
 Alpha  occ. eigenvalues --   -0.75216  -0.73281  -0.69556  -0.63538  -0.60518
 Alpha  occ. eigenvalues --   -0.58601  -0.55580  -0.53209  -0.49772  -0.48393
 Alpha  occ. eigenvalues --   -0.47729
 Alpha virt. eigenvalues --   -0.21000  -0.13278  -0.11668  -0.07064  -0.04786
 Alpha virt. eigenvalues --   -0.03507   0.00047   0.01375   0.02970   0.04078
 Alpha virt. eigenvalues --    0.04860   0.06522   0.06848   0.08488   0.10995

 Mulliken charges:
               1
     1  C   -0.451137
     2  C   -0.280577
     3  C   -0.311687
     4  C   -0.108284
     5  O   -0.602938
     6  H    0.190611
     7  H    0.170916
     8  H    0.167845
     9  H    0.174229
    10  H    0.170226
    11  H    0.177983
    12  H    0.205434
    13  H    0.251481
    14  H    0.236507
    15  H    0.507010
    16  H    0.502380
 Sum of Mulliken charges =   1.00000

 Dipole moment (field-independent basis, Debye):
    X=              7.9460    Y=             -0.0314    Z=              1.2510  Tot=              8.0440
 Quadrupole moment (field-independent basis, Debye-Ang):
   XX=             -1.6030   YY=            -27.5740   ZZ=            -29.7632
   XY=             -1.0828   XZ=              3.4351   YZ=             -1.6786

  Exact polarizability:  59.386   0.271  43.008   0.518  -0.966  40.250
 Approx polarizability:  67.903  -0.649  58.936   0.198  -1.581  57.025

                      1                      2                      3
                      A                      A                      A
 Frequencies --    104.1631               111.7996               165.9537
 Red. masses --      1.8378                 2.2703                 2.3284
 Frc consts  --      0.0117                 0.0167                 0.0378
 IR Inten    --      5.6720                 3.2226                11.7340

                      4                      5                      6
                      A                      A                      A
 Frequencies --    204.0284               250.6706               368.3849
 Red. masses --      1.2079                 1.1239                 4.1909
 Frc consts  --      0.0296                 0.0416                 0.3351
 IR Inten    --     49.2742                 0.0927                 1.3262

                      7                      8                      9
                      A                      A                      A
 Frequencies --    390.2822               671.5442               731.1455
 Red. masses --      2.5727                 5.9760                 1.1570
 Frc consts  --      0.2309                 1.5879                 0.3644
 IR Inten    --      7.2693               179.6553               202.5854

                     10                     11                     12
                      A                      A                      A
 Frequencies --    762.9061               822.5109               890.3562
 Red. masses --      1.0693                 1.1298                 1.7008
 Frc consts  --      0.3667                 0.4503                 0.7944
 IR Inten    --      6.4949                 5.1413                 3.0630

                     13                     14                     15
                      A                      A                      A
 Frequencies --    943.1594               975.0976              1039.3353
 Red. masses --      1.4635                 1.2583                 3.0463
 Frc consts  --      0.7670                 0.7049                 1.9388
 IR Inten    --      1.8174                 0.9750                 1.5864

                     16                     17                     18
                      A                      A                      A
 Frequencies --   1053.9003              1158.4092              1198.4519
 Red. masses --      1.8513                 1.9021                 1.6606
 Frc consts  --      1.2115                 1.5039                 1.4053
 IR Inten    --     36.7125                 9.4661                 5.5083

                     19                     20                     21
                      A                      A                      A
 Frequencies --   1254.5354              1313.8364              1323.5544
 Red. masses --      1.2981                 1.2814                 1.1812
 Frc consts  --      1.2037                 1.3032                 1.2191
 IR Inten    --      2.4434                 0.8003                 0.5403

                     22                     23                     24
                      A                      A                      A
 Frequencies --   1350.7499              1393.8470              1407.8093
 Red. masses --      1.0672                 1.3703                 1.2258
 Frc consts  --      1.1472                 1.5685                 1.4314
 IR Inten    --      1.9483                10.2921                26.0652

                     25                     26                     27
                      A                      A                      A
 Frequencies --   1448.3017              1515.1690              1521.2659
 Red. masses --      1.2125                 1.0889                 1.0849
 Frc consts  --      1.4984                 1.4729                 1.4793
 IR Inten    --      1.5915                 1.5167                 5.6005

                     28                     29                     30
                      A                      A                      A
 Frequencies --   1524.6300              1528.1372              1538.9967
 Red. masses --      1.0848                 1.0393                 1.0950
 Frc consts  --      1.4857                 1.4300                 1.5281
 IR Inten    --      0.6364                12.6463                 8.6686

                     31                     32                     33
                      A                      A                      A
 Frequencies --   1687.5147              3042.4478              3053.4225
 Red. masses --      1.0839                 1.0623                 1.0595
 Frc consts  --      1.8186                 5.7933                 5.8200
 IR Inten    --    144.3097                 2.5904                15.9005

                     34                     35                     36
                      A                      A                      A
 Frequencies --   3062.9415              3086.6944              3111.1946
 Red. masses --      1.0376                 1.1030                 1.1027
 Frc consts  --      5.7356                 6.1918                 6.2885
 IR Inten    --     19.0948                 4.2231                 3.8653

                     37                     38                     39
                      A                      A                      A
 Frequencies --   3130.3562              3133.0691              3145.5180
 Red. masses --      1.0605                 1.1023                 1.1022
 Frc consts  --      6.1230                 6.3751                 6.4251
 IR Inten    --      1.9590                30.5586                 9.9505

                     40                     41                     42
                      A                      A                      A
 Frequencies --   3212.6567              3587.3236              3681.0040
 Red. masses --      1.1161                 1.0425                 1.0885
 Frc consts  --      6.7872                 7.9047                 8.6901
 IR Inten    --      0.4458               175.2716               242.0423

 - Thermochemistry -
 -------------------
 Temperature     0.001 Kelvin.  Pressure   1.00000 Atm.
 Atom     1 has atomic number  6 and mass  12.00000

 Molecular mass:    75.08099 amu.
 Principal axes and moments of inertia in atomic units:
                           1         2         3
     Eigenvalues --   104.77313 965.633961021.62863
           X            0.99996   0.00765   0.00550
           Y           -0.00748   0.99956  -0.02874
           Z           -0.00572   0.02870   0.99957
 This molecule is an asymmetric top.
 Rotational symmetry number  1.
 Rotational temperatures (Kelvin)      0.82668     0.08970     0.08478
 Rotational constants (GHZ):          17.22523     1.86897     1.76653
 Zero-point vibrational energy     394152.0 (Joules/Mol)
                                   94.20460 (Kcal/Mol)
 Vibrational temperatures:    149.87   160.85   238.77   293.55   360.66
          (Kelvin)            530.02   561.53   966.20  1051.96  1097.65
                             1183.41  1281.02  1357.00  1402.95  1495.37
                             1516.33  1666.69  1724.30  1805.00  1890.32
                             1904.30  1943.43  2005.44  2025.52  2083.78
                             2179.99  2188.76  2193.60  2198.65  2214.27
                             2427.96  4377.40  4393.19  4406.89  4441.06
                             4476.32  4503.88  4507.79  4525.70  4622.30
                             5161.36  5296.14

 Zero-point correction=                           0.150125 (Hartree/Particle)
 Thermal correction to Energy=                    0.150125
 Thermal correction to Enthalpy=                  0.150125
 Thermal correction to Gibbs Free Energy=         0.150125
 Sum of electronic and zero-point Energies=           -233.825776
 Sum of electronic and thermal Energies=              -233.825776
 Sum of electronic and thermal Enthalpies=            -233.825776
 Sum of electronic and thermal Free Energies=         -233.825775

                     E (Thermal)             CV                S
                      KCal/Mol        Cal/Mol-Kelvin    Cal/Mol-Kelvin
 Total                   94.205              5.962            -35.195
 Electronic               0.000              0.000              0.000
 Translational            0.000              2.981            -23.760
 Rotational               0.000              2.981            -11.436
 Vibrational             94.205              0.000              0.000

 Optimization completed.
    -- Stationary point found.
 Normal termination of Gaussian 16 at Mon Oct 14 01:08:40 2019.
