 Gaussian 16, Revision A.03,
 Gaussian 16:  ES64L-G16RevA.03 25-Dec-2016

 --------------------------------------------------------------
 #p opt freq b3lyp/6-31g(d) geom=connectivity temperature=0.001
 --------------------------------------------------------------

 -------------------
 Title Card Required
 -------------------
 Symbolic Z-matrix:
 Charge =  0 Multiplicity = 1

 SCF Done:  E(RB3LYP) =  -307.463206741     A.U. after   13 cycles
 SCF Done:  E(RB3LYP) =  -307.464792768     A.U. after   11 cycles
 SCF Done:  E(RB3LYP) =  -307.464854247     A.U. after   10 cycles
 SCF Done:  E(RB3LYP) =  -307.464860030     A.U. after    9 cycles
 Optimization completed.
    -- Stationary point found.
 Normal termination of Gaussian 16 at Mon Oct 14 11:08:43 2019.

 --------------------------------------------------------------------
 #P Geom=AllCheck Guess=TCheck SCRF=Check GenChk RB3LYP/6-31G(d) Freq
 --------------------------------------------------------------------

 Structure from the checkpoint file:  "21.chk"
 -------------------
 Title Card Required
 -------------------
 Charge =  0 Multiplicity = 1

                         Standard orientation:
 ---------------------------------------------------------------------
 Center     Atomic      Atomic             Coordinates (Angstroms)
 Number     Number       Type             X           Y           Z
 ---------------------------------------------------------------------
      1          8           0       -2.307229   -0.111850   -0.000411
      2          6           0       -0.941050   -0.024538    0.000418
      3          6           0       -0.220962   -1.224282    0.000168
      4          6           0        1.171693   -1.190292   -0.000147
      5          6           0        1.857669    0.027759    0.000018
      6          6           0        1.131665    1.219403   -0.000084
      7          6           0       -0.263829    1.199623    0.000081
      8          1           0       -2.678525    0.784137    0.000810
      9          1           0       -0.765801   -2.163169    0.000326
     10          1           0        1.725204   -2.125824   -0.000234
     11          1           0        2.943424    0.046947   -0.000093
     12          1           0        1.649541    2.175032   -0.000231
     13          1           0       -0.827124    2.131644   -0.000008
 ---------------------------------------------------------------------

 SCF Done:  E(RB3LYP) =  -307.464860030     A.U. after    1 cycles

 The electronic state is 1-A.
 Alpha  occ. eigenvalues --  -19.17738 -10.24765 -10.19088 -10.18888 -10.18834
 Alpha  occ. eigenvalues --  -10.18221 -10.18109  -1.05719  -0.84465  -0.74474
 Alpha  occ. eigenvalues --   -0.73336  -0.62070  -0.59819  -0.54049  -0.49535
 Alpha  occ. eigenvalues --   -0.46145  -0.43476  -0.42052  -0.40286  -0.38572
 Alpha  occ. eigenvalues --   -0.35819  -0.33704  -0.33064  -0.24892  -0.21892
 Alpha virt. eigenvalues --    0.00131   0.01704   0.06856   0.09364   0.14476
 Alpha virt. eigenvalues --    0.15676   0.16990   0.18889   0.18954   0.24376
 Alpha virt. eigenvalues --    0.30001   0.30555   0.34329   0.35420   0.48310

 Mulliken charges:
               1
     1  O   -0.642532
     2  C    0.350033
     3  C   -0.158418
     4  C   -0.134266
     5  C   -0.135246
     6  C   -0.133375
     7  C   -0.194421
     8  H    0.406336
     9  H    0.138773
    10  H    0.130719
    11  H    0.125830
    12  H    0.130037
    13  H    0.116529
 Sum of Mulliken charges =  -0.00000

 Dipole moment (field-independent basis, Debye):
    X=             -0.0679    Y=              1.3535    Z=              0.0023  Tot=              1.3552
 Quadrupole moment (field-independent basis, Debye-Ang):
   XX=            -36.6393   YY=            -35.3084   ZZ=            -43.7472
   XY=             -4.4132   XZ=             -0.0074   YZ=              0.0010

  Exact polarizability:  81.495  -1.577  73.584  -0.006   0.001  22.848
 Approx polarizability: 135.743  -0.705 122.775  -0.011   0.004  33.979

                      1                      2                      3
                      A                      A                      A
 Frequencies --    233.6214               361.9415               406.8860
 Red. masses --      4.4077                 1.1037                 3.9938
 Frc consts  --      0.1417                 0.0852                 0.3896
 IR Inten    --      0.6245               123.2163                 9.9292

                      4                      5                      6
                      A                      A                      A
 Frequencies --    422.6697               518.2167               535.5295
 Red. masses --      3.1223                 2.8530                 7.2742
 Frc consts  --      0.3286                 0.4514                 1.2291
 IR Inten    --      0.1868                 5.8993                 1.3281

                      7                      8                      9
                      A                      A                      A
 Frequencies --    632.8910               700.0316               762.5788
 Red. masses --      6.4372                 2.4150                 1.5881
 Frc consts  --      1.5192                 0.6973                 0.5441
 IR Inten    --      0.2957                10.4014                55.1383

                     10                     11                     12
                      A                      A                      A
 Frequencies --    824.6629               833.1375               885.1851
 Red. masses --      1.2542                 5.7729                 1.4310
 Frc consts  --      0.5025                 2.3609                 0.6606
 IR Inten    --      0.0104                17.9403                 5.8424

                     13                     14                     15
                      A                      A                      A
 Frequencies --    952.1520               980.2125              1014.7864
 Red. masses --      1.3195                 1.2282                 5.9698
 Frc consts  --      0.7048                 0.6953                 3.6221
 IR Inten    --      0.0893                 0.1877                 1.5035

                     16                     17                     18
                      A                      A                      A
 Frequencies --   1052.3425              1103.7020              1188.2271
 Red. masses --      2.0873                 1.5501                 1.1135
 Frc consts  --      1.3619                 1.1125                 0.9263
 IR Inten    --      3.5027                11.1298                 7.3499

                     19                     20                     21
                      A                      A                      A
 Frequencies --   1202.0123              1213.2602              1305.4385
 Red. masses --      1.1276                 1.3391                 3.5030
 Frc consts  --      0.9599                 1.1614                 3.5172
 IR Inten    --      5.1726               143.2014                78.9913

                     22                     23                     24
                      A                      A                      A
 Frequencies --   1367.0997              1385.9492              1520.7666
 Red. masses --      2.7343                 1.6099                 2.2756
 Frc consts  --      3.0109                 1.8220                 3.1007
 IR Inten    --      2.5073                39.6116                30.5726

                     25                     26                     27
                      A                      A                      A
 Frequencies --   1550.5265              1656.8894              1669.7371
 Red. masses --      2.3823                 5.7390                 5.6783
 Frc consts  --      3.3745                 9.2827                 9.3275
 IR Inten    --     47.2219                37.9223                40.5646

                     28                     29                     30
                      A                      A                      A
 Frequencies --   3163.4126              3185.3239              3193.4616
 Red. masses --      1.0883                 1.0862                 1.0914
 Frc consts  --      6.4166                 6.4935                 6.5576
 IR Inten    --     17.8178                 0.2159                24.6905

                     31                     32                     33
                      A                      A                      A
 Frequencies --   3209.5912              3217.2155              3748.3815
 Red. masses --      1.0943                 1.0956                 1.0659
 Frc consts  --      6.6416                 6.6810                 8.8239
 IR Inten    --     24.9407                 6.0496                37.7246

 - Thermochemistry -
 -------------------
 Temperature     0.001 Kelvin.  Pressure   1.00000 Atm.
 Atom     1 has atomic number  8 and mass  15.99491

 Molecular mass:    94.04186 amu.
 Principal axes and moments of inertia in atomic units:
                           1         2         3
     Eigenvalues --   319.63201 690.756861010.38882
           X            0.99979  -0.02033  -0.00002
           Y            0.02033   0.99979  -0.00000
           Z            0.00002   0.00000   1.00000
 This molecule is an asymmetric top.
 Rotational symmetry number  1.
 Rotational temperatures (Kelvin)      0.27098     0.12539     0.08572
 Rotational constants (GHZ):           5.64631     2.61270     1.78618
 Zero-point vibrational energy     275128.2 (Joules/Mol)
                                   65.75721 (Kcal/Mol)
 Vibrational temperatures:    336.13   520.75   585.42   608.13   745.60
          (Kelvin)            770.51   910.59  1007.19  1097.18  1186.51
                             1198.70  1273.58  1369.93  1410.31  1460.05
                             1514.09  1587.98  1709.59  1729.43  1745.61
                             1878.23  1966.95  1994.07  2188.04  2230.86
                             2383.89  2402.38  4551.45  4582.97  4594.68
                             4617.89  4628.86  5393.08

 Zero-point correction=                           0.104791 (Hartree/Particle)
 Thermal correction to Energy=                    0.104791
 Thermal correction to Enthalpy=                  0.104791
 Thermal correction to Gibbs Free Energy=         0.104791
 Sum of electronic and zero-point Energies=           -307.360069
 Sum of electronic and thermal Energies=              -307.360069
 Sum of electronic and thermal Enthalpies=            -307.360069
 Sum of electronic and thermal Free Energies=         -307.360069

                     E (Thermal)             CV                S
                      KCal/Mol        Cal/Mol-Kelvin    Cal/Mol-Kelvin
 Total                   65.757              5.962            -33.760
 Electronic               0.000              0.000              0.000
 Translational            0.000              2.981            -23.089
 Rotational               0.000              2.981            -10.671
 Vibrational             65.757              0.000              0.000

 Optimization completed.
    -- Stationary point found.
 Normal termination of Gaussian 16 at Mon Oct 14 11:08:55 2019.
