 Gaussian 16, Revision A.03,
 Gaussian 16:  ES64L-G16RevA.03 25-Dec-2016

 --------------------------------------------------------------
 #P opt freq b3lyp/6-31g(d) geom=connectivity temperature=0.001
 --------------------------------------------------------------

 -------------------
 Title Card Required
 -------------------
 Symbolic Z-matrix:
 Charge =  1 Multiplicity = 1

 SCF Done:  E(RB3LYP) =  -307.743903309     A.U. after   13 cycles
 SCF Done:  E(RB3LYP) =  -307.758168936     A.U. after   12 cycles
 SCF Done:  E(RB3LYP) =  -307.760274543     A.U. after   11 cycles
 SCF Done:  E(RB3LYP) =  -307.760654486     A.U. after   10 cycles
 SCF Done:  E(RB3LYP) =  -307.760850287     A.U. after   11 cycles
 SCF Done:  E(RB3LYP) =  -307.760983766     A.U. after   11 cycles
 SCF Done:  E(RB3LYP) =  -307.761102735     A.U. after   11 cycles
 SCF Done:  E(RB3LYP) =  -307.761202602     A.U. after   11 cycles
 SCF Done:  E(RB3LYP) =  -307.761427002     A.U. after   11 cycles
 SCF Done:  E(RB3LYP) =  -307.761734325     A.U. after   12 cycles
 SCF Done:  E(RB3LYP) =  -307.762003980     A.U. after   11 cycles
 SCF Done:  E(RB3LYP) =  -307.762162267     A.U. after   11 cycles
 SCF Done:  E(RB3LYP) =  -307.762194005     A.U. after   10 cycles
 SCF Done:  E(RB3LYP) =  -307.762195196     A.U. after    8 cycles
 Optimization completed.
    -- Stationary point found.
 Normal termination of Gaussian 16 at Mon Oct 14 01:13:44 2019.

 --------------------------------------------------------------------
 #P Geom=AllCheck Guess=TCheck SCRF=Check GenChk RB3LYP/6-31G(d) Freq
 --------------------------------------------------------------------

 Structure from the checkpoint file:  "21_p.chk"
 -------------------
 Title Card Required
 -------------------
 Charge =  1 Multiplicity = 1

                         Standard orientation:
 ---------------------------------------------------------------------
 Center     Atomic      Atomic             Coordinates (Angstroms)
 Number     Number       Type             X           Y           Z
 ---------------------------------------------------------------------
      1          8           0       -2.311712   -0.087901    0.000122
      2          6           0       -0.802626   -0.019625    0.000134
      3          6           0       -0.203565    1.225858   -0.000101
      4          6           0        1.194928    1.228488   -0.000068
      5          6           0        1.902529    0.022738    0.000008
      6          6           0        1.232194   -1.203106    0.000069
      7          6           0       -0.166472   -1.243952   -0.000114
      8          1           0       -2.728734    0.292982    0.804333
      9          1           0       -0.771010    2.151793   -0.000017
     10          1           0        1.722372    2.176604   -0.000017
     11          1           0        2.987567    0.039995    0.000080
     12          1           0        1.788823   -2.134416    0.000210
     13          1           0       -0.718576   -2.177218   -0.000081
     14          1           0       -2.728676    0.291053   -0.805047
 ---------------------------------------------------------------------

 SCF Done:  E(RB3LYP) =  -307.762195196     A.U. after    1 cycles

 The electronic state is 1-A.
 Alpha  occ. eigenvalues --  -19.51183 -10.45472 -10.38212 -10.37771 -10.36407
 Alpha  occ. eigenvalues --  -10.36222 -10.35719  -1.36918  -1.04196  -0.93702
 Alpha  occ. eigenvalues --   -0.92992  -0.86785  -0.82702  -0.79285  -0.73763
 Alpha  occ. eigenvalues --   -0.67971  -0.66614  -0.61731  -0.61043  -0.59736
 Alpha  occ. eigenvalues --   -0.54991  -0.53215  -0.52342  -0.43330  -0.42698
 Alpha virt. eigenvalues --   -0.20168  -0.18456  -0.17661  -0.11122  -0.10929
 Alpha virt. eigenvalues --   -0.01988  -0.01352  -0.01240   0.01112   0.03535
 Alpha virt. eigenvalues --    0.04438   0.10543   0.13344   0.16343   0.17338

 Mulliken charges:
               1
     1  O   -0.630156
     2  C    0.197758
     3  C   -0.130992
     4  C   -0.137423
     5  C   -0.092039
     6  C   -0.139140
     7  C   -0.105453
     8  H    0.515422
     9  H    0.190393
    10  H    0.203319
    11  H    0.200370
    12  H    0.204338
    13  H    0.208166
    14  H    0.515436
 Sum of Mulliken charges =   1.00000

 Dipole moment (field-independent basis, Debye):
    X=             -6.0390    Y=              1.2142    Z=             -0.0016  Tot=              6.1599
 Quadrupole moment (field-independent basis, Debye-Ang):
   XX=             -8.0255   YY=            -29.8660   ZZ=            -38.9635
   XY=             -3.9789   XZ=              0.0055   YZ=              0.0035

  Exact polarizability:  76.240  -1.217  70.332   0.001   0.001  25.131
 Approx polarizability: 122.236  -1.349 120.463   0.000   0.002  37.434

                      1                      2                      3
                      A                      A                      A
 Frequencies --    139.3075               217.2987               353.2381
 Red. masses --      1.0438                 3.6411                 3.3281
 Frc consts  --      0.0119                 0.1013                 0.2447
 IR Inten    --     68.0679                 7.4019                20.1810

                      4                      5                      6
                      A                      A                      A
 Frequencies --    421.6165               451.5863               500.2889
 Red. masses --      2.9316                 3.1409                 6.4774
 Frc consts  --      0.3070                 0.3774                 0.9552
 IR Inten    --      0.4221                13.6733                 1.7220

                      7                      8                      9
                      A                      A                      A
 Frequencies --    614.7604               675.8164               686.7257
 Red. masses --      6.2571                 3.2749                 1.5908
 Frc consts  --      1.3933                 0.8813                 0.4420
 IR Inten    --      1.8537                 6.0547               287.4580

                     10                     11                     12
                      A                      A                      A
 Frequencies --    739.9096               749.9863               815.4891
 Red. masses --      3.3019                 1.1927                 1.2485
 Frc consts  --      1.0651                 0.3953                 0.4892
 IR Inten    --     21.5553                68.3504                 1.4663

                     13                     14                     15
                      A                      A                      A
 Frequencies --    923.4769               984.8272               998.9405
 Red. masses --      1.2649                 1.3435                 6.7336
 Frc consts  --      0.6356                 0.7677                 3.9589
 IR Inten    --      0.2481                 0.0473                23.9963

                     16                     17                     18
                      A                      A                      A
 Frequencies --   1028.5309              1038.8591              1053.7214
 Red. masses --      1.3364                 2.8376                 1.2294
 Frc consts  --      0.8329                 1.8044                 0.8043
 IR Inten    --      0.1655                 2.8828                 7.0816

                     19                     20                     21
                      A                      A                      A
 Frequencies --   1085.2565              1107.0730              1199.1682
 Red. masses --      2.5958                 1.5058                 1.1524
 Frc consts  --      1.8013                 1.0873                 0.9764
 IR Inten    --      6.5516                 6.0874                 0.4415

                     22                     23                     24
                      A                      A                      A
 Frequencies --   1204.1389              1347.7617              1362.9306
 Red. masses --      1.1103                 1.3887                 5.3053
 Frc consts  --      0.9486                 1.4863                 5.8064
 IR Inten    --      0.0543                 0.6275                15.2776

                     25                     26                     27
                      A                      A                      A
 Frequencies --   1506.9004              1518.4652              1613.9765
 Red. masses --      2.1952                 2.1002                 5.1422
 Frc consts  --      2.9369                 2.8531                 7.8921
 IR Inten    --      4.2479                41.7486                 2.3489

                     28                     29                     30
                      A                      A                      A
 Frequencies --   1659.2761              1703.7631              3212.4031
 Red. masses --      2.1691                 1.6575                 1.0913
 Frc consts  --      3.5186                 2.8348                 6.6355
 IR Inten    --     70.7244                45.0204                 0.8312

                     31                     32                     33
                      A                      A                      A
 Frequencies --   3222.0957              3230.4577              3236.8960
 Red. masses --      1.0895                 1.0921                 1.0958
 Frc consts  --      6.6643                 6.7146                 6.7647
 IR Inten    --      0.5709                 0.1308                 1.7141

                     34                     35                     36
                      A                      A                      A
 Frequencies --   3242.1822              3572.6209              3658.0594
 Red. masses --      1.0978                 1.0415                 1.0899
 Frc consts  --      6.7989                 7.8325                 8.5927
 IR Inten    --      2.2997               240.4009               305.5446

 - Thermochemistry -
 -------------------
 Temperature     0.001 Kelvin.  Pressure   1.00000 Atm.
 Atom     1 has atomic number  8 and mass  15.99491

 Molecular mass:    95.04969 amu.
 Principal axes and moments of inertia in atomic units:
                           1         2         3
     Eigenvalues --   330.24068 733.821101054.73996
           X            0.99990  -0.01440   0.00001
           Y            0.01440   0.99990   0.00001
           Z           -0.00001  -0.00001   1.00000
 This molecule is an asymmetric top.
 Rotational symmetry number  1.
 Rotational temperatures (Kelvin)      0.26228     0.11803     0.08212
 Rotational constants (GHZ):           5.46493     2.45937     1.71108
 Zero-point vibrational energy     305513.1 (Joules/Mol)
                                   73.01939 (Kcal/Mol)
 Vibrational temperatures:    200.43   312.64   508.23   606.61   649.73
          (Kelvin)            719.80   884.50   972.35   988.05  1064.56
                             1079.06  1173.31  1328.68  1416.95  1437.25
                             1479.83  1494.69  1516.07  1561.44  1592.83
                             1725.34  1732.49  1939.13  1960.95  2168.09
                             2184.73  2322.15  2387.33  2451.34  4621.93
                             4635.88  4647.91  4657.17  4664.78  5140.20
                             5263.13

 Zero-point correction=                           0.116364 (Hartree/Particle)
 Thermal correction to Energy=                    0.116364
 Thermal correction to Enthalpy=                  0.116364
 Thermal correction to Gibbs Free Energy=         0.116364
 Sum of electronic and zero-point Energies=           -307.645831
 Sum of electronic and thermal Energies=              -307.645831
 Sum of electronic and thermal Enthalpies=            -307.645831
 Sum of electronic and thermal Free Energies=         -307.645831

                     E (Thermal)             CV                S
                      KCal/Mol        Cal/Mol-Kelvin    Cal/Mol-Kelvin
 Total                   73.019              5.962            -33.593
 Electronic               0.000              0.000              0.000
 Translational            0.000              2.981            -23.057
 Rotational               0.000              2.981            -10.536
 Vibrational             73.019              0.000              0.000

                           ! Non-Optimized Parameters !
 Normal termination of Gaussian 16 at Mon Oct 14 01:13:56 2019.
