 Gaussian 16, Revision A.03,
 Gaussian 16:  ES64L-G16RevA.03 25-Dec-2016

 --------------------------------------------------------------
 #P opt freq b3lyp/6-31g(d) geom=connectivity temperature=0.001
 --------------------------------------------------------------

 -------------------
 Title Card Required
 -------------------
 Symbolic Z-matrix:
 Charge =  0 Multiplicity = 1

 SCF Done:  E(RB3LYP) =  -630.574669021     A.U. after   14 cycles
 SCF Done:  E(RB3LYP) =  -630.597682284     A.U. after   13 cycles
 SCF Done:  E(RB3LYP) =  -630.606773251     A.U. after   12 cycles
 SCF Done:  E(RB3LYP) =  -630.607423650     A.U. after   11 cycles
 SCF Done:  E(RB3LYP) =  -630.607714993     A.U. after   11 cycles
 SCF Done:  E(RB3LYP) =  -630.607979228     A.U. after   12 cycles
 SCF Done:  E(RB3LYP) =  -630.607928745     A.U. after   12 cycles
 SCF Done:  E(RB3LYP) =  -630.608503661     A.U. after   12 cycles
 SCF Done:  E(RB3LYP) =  -630.608376156     A.U. after   11 cycles
 SCF Done:  E(RB3LYP) =  -630.608769651     A.U. after   12 cycles
 SCF Done:  E(RB3LYP) =  -630.608922217     A.U. after   12 cycles
 SCF Done:  E(RB3LYP) =  -630.608919063     A.U. after   12 cycles
 SCF Done:  E(RB3LYP) =  -630.608997853     A.U. after   12 cycles
 SCF Done:  E(RB3LYP) =  -630.608992444     A.U. after    8 cycles
 SCF Done:  E(RB3LYP) =  -630.609011962     A.U. after   11 cycles
 SCF Done:  E(RB3LYP) =  -630.609014360     A.U. after   11 cycles
 SCF Done:  E(RB3LYP) =  -630.609016567     A.U. after   10 cycles
 SCF Done:  E(RB3LYP) =  -630.609016563     A.U. after    8 cycles
 SCF Done:  E(RB3LYP) =  -630.609016574     A.U. after    7 cycles
 Optimization completed.
    -- Stationary point found.
 Normal termination of Gaussian 16 at Mon Oct 14 01:16:21 2019.

 --------------------------------------------------------------------
 #P Geom=AllCheck Guess=TCheck SCRF=Check GenChk RB3LYP/6-31G(d) Freq
 --------------------------------------------------------------------

 Structure from the checkpoint file:  "22.chk"
 -------------------
 Title Card Required
 -------------------
 Charge =  0 Multiplicity = 1

                         Standard orientation:
 ---------------------------------------------------------------------
 Center     Atomic      Atomic             Coordinates (Angstroms)
 Number     Number       Type             X           Y           Z
 ---------------------------------------------------------------------
      1          8           0       -1.776354    0.056216    0.867086
      2         16           0       -1.011373   -0.089649   -0.433853
      3          6           0        0.349036   -1.350589   -0.124260
      4          6           0        1.686007   -0.619257    0.102490
      5          6           0        1.358100    0.832297    0.487358
      6          6           0        0.257466    1.265418   -0.478027
      7          1           0       -0.011060   -1.871077    0.767890
      8          1           0        0.372228   -2.056407   -0.959743
      9          1           0        2.283021   -1.122303    0.870892
     10          1           0        2.276323   -0.626578   -0.822186
     11          1           0        0.969814    0.877758    1.511273
     12          1           0        2.237013    1.484155    0.429069
     13          1           0       -0.259050    2.189656   -0.206784
     14          1           0        0.620860    1.342251   -1.510816
 ---------------------------------------------------------------------

 SCF Done:  E(RB3LYP) =  -630.609016574     A.U. after    1 cycles

 The electronic state is 1-A.
 Alpha  occ. eigenvalues --  -88.97379 -19.09496 -10.21351 -10.21245 -10.20490
 Alpha  occ. eigenvalues --  -10.20134  -8.02172  -5.98553  -5.98466  -5.97928
 Alpha  occ. eigenvalues --   -0.98992  -0.83834  -0.73770  -0.71467  -0.59420
 Alpha  occ. eigenvalues --   -0.58120  -0.49416  -0.48431  -0.45104  -0.41420
 Alpha  occ. eigenvalues --   -0.38964  -0.38355  -0.37039  -0.36092  -0.34996
 Alpha  occ. eigenvalues --   -0.34195  -0.25023  -0.21716
 Alpha virt. eigenvalues --    0.03129   0.04781   0.07426   0.08877   0.11276
 Alpha virt. eigenvalues --    0.12960   0.14730   0.15352   0.15881   0.18047
 Alpha virt. eigenvalues --    0.19226   0.19852   0.22565   0.26019   0.34159

 Mulliken charges:
               1
     1  O   -0.643220
     2  S    0.760060
     3  C   -0.488847
     4  C   -0.254566
     5  C   -0.279660
     6  C   -0.465718
     7  H    0.203567
     8  H    0.173521
     9  H    0.159410
    10  H    0.145916
    11  H    0.176908
    12  H    0.154041
    13  H    0.194782
    14  H    0.163807
 Sum of Mulliken charges =  -0.00000

 Dipole moment (field-independent basis, Debye):
    X=              3.6618    Y=             -0.1337    Z=             -1.8936  Tot=              4.1246
 Quadrupole moment (field-independent basis, Debye-Ang):
   XX=            -48.9741   YY=            -40.2281   ZZ=            -44.6940
   XY=              0.1158   XZ=              3.2863   YZ=             -0.5344

  Exact polarizability:  66.744  -0.502  60.548  -2.668  -0.377  52.781
 Approx polarizability: 100.743  -1.650  87.099 -13.167  -0.479  85.768

                      1                      2                      3
                      A                      A                      A
 Frequencies --     57.8889               224.8308               298.1481
 Red. masses --      2.4955                 2.3056                 4.0647
 Frc consts  --      0.0049                 0.0687                 0.2129
 IR Inten    --      5.0346                 3.2470                 5.0581

                      4                      5                      6
                      A                      A                      A
 Frequencies --    336.0107               506.4521               527.7136
 Red. masses --      2.1674                 3.6102                 2.8698
 Frc consts  --      0.1442                 0.5456                 0.4709
 IR Inten    --      1.3234                 8.7966                 5.1270

                      7                      8                      9
                      A                      A                      A
 Frequencies --    607.7651               641.4699               787.9291
 Red. masses --      3.9753                 3.6082                 1.4501
 Frc consts  --      0.8651                 0.8748                 0.5304
 IR Inten    --     11.0766                 5.6972                 4.8282

                     10                     11                     12
                      A                      A                      A
 Frequencies --    881.9174               892.4385               906.9766
 Red. masses --      1.9711                 2.1717                 1.8268
 Frc consts  --      0.9033                 1.0191                 0.8854
 IR Inten    --      0.2532                 1.9066                 1.0890

                     13                     14                     15
                      A                      A                      A
 Frequencies --    971.6846              1011.1844              1051.9015
 Red. masses --      1.8707                 1.4227                 2.4369
 Frc consts  --      1.0406                 0.8571                 1.5887
 IR Inten    --      3.0118                 2.2089                55.5628

                     16                     17                     18
                      A                      A                      A
 Frequencies --   1054.8142              1119.7705              1163.8543
 Red. masses --      2.2548                 1.4614                 1.3621
 Frc consts  --      1.4781                 1.0796                 1.0871
 IR Inten    --     30.4642                34.2707                 3.0848

                     19                     20                     21
                      A                      A                      A
 Frequencies --   1227.5262              1239.5694              1289.5662
 Red. masses --      1.3867                 1.4041                 1.2275
 Frc consts  --      1.2311                 1.2711                 1.2027
 IR Inten    --      1.1816                 0.7407                 3.1486

                     22                     23                     24
                      A                      A                      A
 Frequencies --   1305.9249              1354.5419              1379.5238
 Red. masses --      1.3150                 1.3843                 1.2917
 Frc consts  --      1.3213                 1.4964                 1.4484
 IR Inten    --      0.7450                 1.0117                 0.6258

                     25                     26                     27
                      A                      A                      A
 Frequencies --   1484.4078              1487.7401              1515.0175
 Red. masses --      1.0952                 1.0866                 1.0862
 Frc consts  --      1.4219                 1.4170                 1.4689
 IR Inten    --      4.0981                 4.2403                 5.3169

                     28                     29                     30
                      A                      A                      A
 Frequencies --   1530.9494              3054.0399              3062.0270
 Red. masses --      1.1020                 1.0640                 1.0654
 Frc consts  --      1.5218                 5.8470                 5.8852
 IR Inten    --      0.6274                26.9031                14.1437

                     31                     32                     33
                      A                      A                      A
 Frequencies --   3066.5410              3087.0035              3100.4034
 Red. masses --      1.0598                 1.0607                 1.0985
 Frc consts  --      5.8717                 5.9553                 6.2216
 IR Inten    --     22.1412                12.7984                16.2692

                     34                     35                     36
                      A                      A                      A
 Frequencies --   3114.3841              3146.8620              3148.1850
 Red. masses --      1.1057                 1.1031                 1.1068
 Frc consts  --      6.3190                 6.4363                 6.4628
 IR Inten    --     23.6763                 1.0012                13.9113

 - Thermochemistry -
 -------------------
 Temperature     0.001 Kelvin.  Pressure   1.00000 Atm.
 Atom     1 has atomic number  8 and mass  15.99491

 Molecular mass:   104.02959 amu.
 Principal axes and moments of inertia in atomic units:
                           1         2         3
     Eigenvalues --   375.52546 677.80748 826.72376
           X            0.99994  -0.00308   0.01025
           Y            0.00319   0.99994  -0.01057
           Z           -0.01022   0.01060   0.99989
 This molecule is an asymmetric top.
 Rotational symmetry number  1.
 Rotational temperatures (Kelvin)      0.23065     0.12779     0.10477
 Rotational constants (GHZ):           4.80591     2.66262     2.18300
 Zero-point vibrational energy     308857.6 (Joules/Mol)
                                   73.81874 (Kcal/Mol)
 Vibrational temperatures:     83.29   323.48   428.97   483.44   728.67
          (Kelvin)            759.26   874.44   922.93  1133.65  1268.88
                             1284.02  1304.94  1398.04  1454.87  1513.45
                             1517.64  1611.10  1674.53  1766.14  1783.46
                             1855.40  1878.93  1948.88  1984.83  2135.73
                             2140.53  2179.77  2202.69  4394.08  4405.57
                             4412.07  4441.51  4460.79  4480.90  4527.63
                             4529.54

 Zero-point correction=                           0.117638 (Hartree/Particle)
 Thermal correction to Energy=                    0.117638
 Thermal correction to Enthalpy=                  0.117638
 Thermal correction to Gibbs Free Energy=         0.117638
 Sum of electronic and zero-point Energies=           -630.491379
 Sum of electronic and thermal Energies=              -630.491379
 Sum of electronic and thermal Enthalpies=            -630.491379
 Sum of electronic and thermal Free Energies=         -630.491379

                     E (Thermal)             CV                S
                      KCal/Mol        Cal/Mol-Kelvin    Cal/Mol-Kelvin
 Total                   73.819              5.962            -33.517
 Electronic               0.000              0.000              0.000
 Translational            0.000              2.981            -22.788
 Rotational               0.000              2.981            -10.729
 Vibrational             73.819              0.000              0.000

 Optimization completed.
    -- Stationary point found.
 Normal termination of Gaussian 16 at Mon Oct 14 01:16:33 2019.
