 Gaussian 16, Revision A.03,
 Gaussian 16:  ES64L-G16RevA.03 25-Dec-2016

 --------------------------------------------------------------
 #P opt freq b3lyp/6-31g(d) geom=connectivity temperature=0.001
 --------------------------------------------------------------

 -------------------
 Title Card Required
 -------------------
 Symbolic Z-matrix:
 Charge =  1 Multiplicity = 1

 SCF Done:  E(RB3LYP) =  -630.937726541     A.U. after   13 cycles
 SCF Done:  E(RB3LYP) =  -630.956969551     A.U. after   11 cycles
 SCF Done:  E(RB3LYP) =  -630.963784032     A.U. after   11 cycles
 SCF Done:  E(RB3LYP) =  -630.964750348     A.U. after   11 cycles
 SCF Done:  E(RB3LYP) =  -630.965645504     A.U. after   11 cycles
 SCF Done:  E(RB3LYP) =  -630.966093511     A.U. after   11 cycles
 SCF Done:  E(RB3LYP) =  -630.965956146     A.U. after   12 cycles
 SCF Done:  E(RB3LYP) =  -630.966562254     A.U. after   11 cycles
 SCF Done:  E(RB3LYP) =  -630.966650623     A.U. after   11 cycles
 SCF Done:  E(RB3LYP) =  -630.966679009     A.U. after   10 cycles
 SCF Done:  E(RB3LYP) =  -630.966697182     A.U. after   11 cycles
 SCF Done:  E(RB3LYP) =  -630.966696193     A.U. after   10 cycles
 SCF Done:  E(RB3LYP) =  -630.966700832     A.U. after   10 cycles
 SCF Done:  E(RB3LYP) =  -630.966700759     A.U. after    7 cycles
 SCF Done:  E(RB3LYP) =  -630.966700853     A.U. after    7 cycles
 Optimization completed.
    -- Stationary point found.
 Normal termination of Gaussian 16 at Mon Oct 14 01:22:01 2019.

 --------------------------------------------------------------------
 #P Geom=AllCheck Guess=TCheck SCRF=Check GenChk RB3LYP/6-31G(d) Freq
 --------------------------------------------------------------------

 Structure from the checkpoint file:  "22_p.chk"
 -------------------
 Title Card Required
 -------------------
 Charge =  1 Multiplicity = 1

                         Standard orientation:
 ---------------------------------------------------------------------
 Center     Atomic      Atomic             Coordinates (Angstroms)
 Number     Number       Type             X           Y           Z
 ---------------------------------------------------------------------
      1          8           0       -1.871140    0.054513    0.771446
      2         16           0       -0.915461   -0.108744   -0.542377
      3          6           0        0.362540   -1.367408   -0.058725
      4          6           0        1.702511   -0.623121    0.108128
      5          6           0        1.394538    0.833152    0.490227
      6          6           0        0.272419    1.292716   -0.446138
      7          1           0       -0.020202   -1.816547    0.864252
      8          1           0        0.362580   -2.136896   -0.835273
      9          1           0        2.309520   -1.126159    0.866256
     10          1           0        2.261034   -0.654853   -0.832760
     11          1           0        1.080338    0.911785    1.538731
     12          1           0        2.268287    1.480671    0.371752
     13          1           0       -0.291202    2.180645   -0.144848
     14          1           0        0.619182    1.434479   -1.477059
     15          1           0       -1.365084    0.218643    1.594461
 ---------------------------------------------------------------------

 SCF Done:  E(RB3LYP) =  -630.966700853     A.U. after    1 cycles

 The electronic state is 1-A.
 Alpha  occ. eigenvalues --  -89.20852 -19.41048 -10.42419 -10.42319 -10.38434
 Alpha  occ. eigenvalues --  -10.38058  -8.26015  -6.22608  -6.22099  -6.21620
 Alpha  occ. eigenvalues --   -1.27868  -1.05923  -0.94666  -0.93882  -0.82566
 Alpha  occ. eigenvalues --   -0.78371  -0.74003  -0.69240  -0.65938  -0.64592
 Alpha  occ. eigenvalues --   -0.62903  -0.60930  -0.57326  -0.56018  -0.54874
 Alpha  occ. eigenvalues --   -0.53305  -0.52062  -0.51834
 Alpha virt. eigenvalues --   -0.22875  -0.18666  -0.13247  -0.12847  -0.08078
 Alpha virt. eigenvalues --   -0.04743  -0.04495  -0.02846  -0.02450  -0.00162
 Alpha virt. eigenvalues --    0.01223   0.01512   0.03097   0.05290   0.08180

 Mulliken charges:
               1
     1  O   -0.609065
     2  S    0.875729
     3  C   -0.517053
     4  C   -0.280426
     5  C   -0.306939
     6  C   -0.502811
     7  H    0.249585
     8  H    0.264920
     9  H    0.226641
    10  H    0.206902
    11  H    0.180658
    12  H    0.235000
    13  H    0.263891
    14  H    0.254698
    15  H    0.458266
 Sum of Mulliken charges =   1.00000

 Dipole moment (field-independent basis, Debye):
    X=              1.5650    Y=              0.1564    Z=              0.4468  Tot=              1.6350
 Quadrupole moment (field-independent basis, Debye-Ang):
   XX=            -38.2109   YY=            -33.6812   ZZ=            -34.8746
   XY=             -0.3519   XZ=             -1.0263   YZ=             -0.0457

  Exact polarizability:  63.201  -0.267  57.856  -1.273  -0.303  51.092
 Approx polarizability:  93.390  -0.279  83.720  -4.435  -0.762  78.602

                      1                      2                      3
                      A                      A                      A
 Frequencies --     75.2937               223.8044               293.5119
 Red. masses --      2.5238                 2.2344                 2.8107
 Frc consts  --      0.0084                 0.0659                 0.1427
 IR Inten    --      5.8288                 1.7045                 3.5772

                      4                      5                      6
                      A                      A                      A
 Frequencies --    319.1119               360.8925               490.4562
 Red. masses --      1.9130                 1.2338                 5.7199
 Frc consts  --      0.1148                 0.0947                 0.8107
 IR Inten    --      4.1371               150.5272                 4.0894

                      7                      8                      9
                      A                      A                      A
 Frequencies --    523.5591               612.9826               641.8560
 Red. masses --      2.3260                 3.7746                 3.5595
 Frc consts  --      0.3757                 0.8356                 0.8640
 IR Inten    --      4.0799                 1.8186                 5.0825

                     10                     11                     12
                      A                      A                      A
 Frequencies --    793.1406               818.7258               884.2421
 Red. masses --      1.4897                 7.5465                 2.3993
 Frc consts  --      0.5521                 2.9804                 1.1053
 IR Inten    --     11.1615                59.4917                 2.9853

                     13                     14                     15
                      A                      A                      A
 Frequencies --    885.4126               904.2739               957.8482
 Red. masses --      2.1826                 1.5977                 2.0325
 Frc consts  --      1.0081                 0.7697                 1.0987
 IR Inten    --     13.5718                10.6881                 3.5865

                     16                     17                     18
                      A                      A                      A
 Frequencies --   1037.5400              1053.4324              1109.3175
 Red. masses --      1.6481                 1.6864                 1.0586
 Frc consts  --      1.0453                 1.1026                 0.7675
 IR Inten    --      1.0009                 1.9026                21.5179

                     19                     20                     21
                      A                      A                      A
 Frequencies --   1175.1119              1216.3584              1228.6721
 Red. masses --      1.2976                 1.2000                 1.3504
 Frc consts  --      1.0557                 1.0460                 1.2012
 IR Inten    --      1.2452                50.5639                11.8753

                     22                     23                     24
                      A                      A                      A
 Frequencies --   1247.1124              1295.4830              1323.0429
 Red. masses --      1.2837                 1.2048                 1.2775
 Frc consts  --      1.1763                 1.1913                 1.3175
 IR Inten    --      3.6418                 8.2955                 1.3698

                     25                     26                     27
                      A                      A                      A
 Frequencies --   1357.1960              1383.9416              1476.2448
 Red. masses --      1.3516                 1.2890                 1.0870
 Frc consts  --      1.4669                 1.4546                 1.3957
 IR Inten    --      1.8917                 1.4981                16.1757

                     28                     29                     30
                      A                      A                      A
 Frequencies --   1485.4071              1517.0962              1528.4177
 Red. masses --      1.0787                 1.0795                 1.0954
 Frc consts  --      1.4023                 1.4638                 1.5077
 IR Inten    --     14.4333                16.3283                 2.6808

                     31                     32                     33
                      A                      A                      A
 Frequencies --   3063.7585              3084.0329              3091.4845
 Red. masses --      1.0706                 1.0625                 1.0636
 Frc consts  --      5.9206                 5.9538                 5.9892
 IR Inten    --     10.3595                 2.0815                 3.5953

                     34                     35                     36
                      A                      A                      A
 Frequencies --   3094.1390              3133.7250              3142.0009
 Red. masses --      1.0614                 1.0970                 1.1051
 Frc consts  --      5.9869                 6.3469                 6.4277
 IR Inten    --      3.3773                 0.9957                 3.7499

                     37                     38                     39
                      A                      A                      A
 Frequencies --   3153.3448              3159.9990              3633.4081
 Red. masses --      1.1052                 1.1063                 1.0673
 Frc consts  --      6.4751                 6.5089                 8.3016
 IR Inten    --      2.0929                 1.4971                77.1470

 - Thermochemistry -
 -------------------
 Temperature     0.001 Kelvin.  Pressure   1.00000 Atm.
 Atom     1 has atomic number  8 and mass  15.99491

 Molecular mass:   105.03741 amu.
 Principal axes and moments of inertia in atomic units:
                           1         2         3
     Eigenvalues --   393.03073 702.90246 849.12640
           X            0.99997  -0.00561  -0.00469
           Y            0.00557   0.99995  -0.00811
           Z            0.00474   0.00809   0.99996
 This molecule is an asymmetric top.
 Rotational symmetry number  1.
 Rotational temperatures (Kelvin)      0.22037     0.12322     0.10200
 Rotational constants (GHZ):           4.59186     2.56756     2.12541
 Zero-point vibrational energy     339592.2 (Joules/Mol)
                                   81.16448 (Kcal/Mol)
 Vibrational temperatures:    108.33   322.00   422.30   459.13   519.24
          (Kelvin)            705.66   753.28   881.95   923.49  1141.15
                             1177.96  1272.23  1273.91  1301.05  1378.13
                             1492.79  1515.65  1596.06  1690.72  1750.07
                             1767.79  1794.32  1863.91  1903.56  1952.70
                             1991.18  2123.99  2137.17  2182.76  2199.05
                             4408.07  4437.24  4447.96  4451.78  4508.73
                             4520.64  4536.96  4546.53  5227.66

 Zero-point correction=                           0.129344 (Hartree/Particle)
 Thermal correction to Energy=                    0.129344
 Thermal correction to Enthalpy=                  0.129344
 Thermal correction to Gibbs Free Energy=         0.129344
 Sum of electronic and zero-point Energies=           -630.837357
 Sum of electronic and thermal Energies=              -630.837357
 Sum of electronic and thermal Enthalpies=            -630.837357
 Sum of electronic and thermal Free Energies=         -630.837357

                     E (Thermal)             CV                S
                      KCal/Mol        Cal/Mol-Kelvin    Cal/Mol-Kelvin
 Total                   81.164              5.962            -33.380
 Electronic               0.000              0.000              0.000
 Translational            0.000              2.981            -22.759
 Rotational               0.000              2.981            -10.621
 Vibrational             81.164              0.000              0.000

 Optimization completed.
    -- Stationary point found.
 Normal termination of Gaussian 16 at Mon Oct 14 01:22:14 2019.
