 Gaussian 16, Revision A.03,
 Gaussian 16:  ES64L-G16RevA.03 25-Dec-2016

 --------------------------------------------------------------
 #P opt freq b3lyp/6-31g(d) geom=connectivity temperature=0.001
 --------------------------------------------------------------

 -------------------
 Title Card Required
 -------------------
 Symbolic Z-matrix:
 Charge =  0 Multiplicity = 1

 SCF Done:  E(RB3LYP) =  -705.767649822     A.U. after   15 cycles
 SCF Done:  E(RB3LYP) =  -705.804304490     A.U. after   13 cycles
 SCF Done:  E(RB3LYP) =  -705.816501184     A.U. after   12 cycles
 SCF Done:  E(RB3LYP) =  -705.819777323     A.U. after   11 cycles
 SCF Done:  E(RB3LYP) =  -705.819991808     A.U. after   11 cycles
 SCF Done:  E(RB3LYP) =  -705.820006408     A.U. after   10 cycles
 SCF Done:  E(RB3LYP) =  -705.820010464     A.U. after    9 cycles
 SCF Done:  E(RB3LYP) =  -705.820015868     A.U. after   11 cycles
 SCF Done:  E(RB3LYP) =  -705.820019674     A.U. after   11 cycles
 SCF Done:  E(RB3LYP) =  -705.820021111     A.U. after   11 cycles
 SCF Done:  E(RB3LYP) =  -705.820021182     A.U. after    8 cycles
 Optimization completed.
    -- Stationary point found.
 Normal termination of Gaussian 16 at Mon Oct 14 01:23:30 2019.

 --------------------------------------------------------------------
 #P Geom=AllCheck Guess=TCheck SCRF=Check GenChk RB3LYP/6-31G(d) Freq
 --------------------------------------------------------------------

 Structure from the checkpoint file:  "23.chk"
 -------------------
 Title Card Required
 -------------------
 Charge =  0 Multiplicity = 1

                         Standard orientation:
 ---------------------------------------------------------------------
 Center     Atomic      Atomic             Coordinates (Angstroms)
 Number     Number       Type             X           Y           Z
 ---------------------------------------------------------------------
      1          8           0       -1.519059    0.341773   -1.232976
      2         16           0       -0.790319    0.000002   -0.000003
      3          6           0        0.450678    1.311952    0.368905
      4          6           0        1.785228    0.759143   -0.142766
      5          6           0        1.785246   -0.759136    0.142761
      6          6           0        0.450651   -1.312003   -0.368767
      7          8           0       -1.519291   -0.341724    1.232839
      8          1           0        0.115729    2.227211   -0.122854
      9          1           0        0.443537    1.446127    1.453797
     10          1           0        1.871849    0.933367   -1.221855
     11          1           0        2.629405    1.260785    0.340653
     12          1           0        2.629380   -1.260787   -0.340723
     13          1           0        1.871967   -0.933331    1.221847
     14          1           0        0.443445   -1.446307   -1.453640
     15          1           0        0.115780   -2.227221    0.123124
 ---------------------------------------------------------------------

 SCF Done:  E(RB3LYP) =  -705.820021182     A.U. after    1 cycles

 The electronic state is 1-A.
 Alpha  occ. eigenvalues --  -89.08267 -19.13382 -19.13382 -10.22829 -10.22828
 Alpha  occ. eigenvalues --  -10.22124 -10.22104  -8.11340  -6.07750  -6.07665
 Alpha  occ. eigenvalues --   -6.07662  -1.08887  -0.98695  -0.85785  -0.76123
 Alpha  occ. eigenvalues --   -0.71853  -0.61629  -0.58895  -0.51643  -0.50300
 Alpha  occ. eigenvalues --   -0.46558  -0.45738  -0.43821  -0.43756  -0.40018
 Alpha  occ. eigenvalues --   -0.39154  -0.38079  -0.36810  -0.31485  -0.30342
 Alpha  occ. eigenvalues --   -0.29083  -0.27654
 Alpha virt. eigenvalues --    0.05152   0.05750   0.07394   0.07641   0.08265
 Alpha virt. eigenvalues --    0.11582   0.12687   0.14328   0.14793   0.14820
 Alpha virt. eigenvalues --    0.17116   0.18357   0.21683   0.22011   0.25330

 Mulliken charges:
               1
     1  O   -0.532531
     2  S    1.113870
     3  C   -0.484557
     4  C   -0.287400
     5  C   -0.287393
     6  C   -0.484568
     7  O   -0.532514
     8  H    0.208635
     9  H    0.203302
    10  H    0.168087
    11  H    0.167524
    12  H    0.167524
    13  H    0.168079
    14  H    0.203310
    15  H    0.208632
 Sum of Mulliken charges =  -0.00000

 Dipole moment (field-independent basis, Debye):
    X=              5.2739    Y=             -0.0001    Z=              0.0003  Tot=              5.2739
 Quadrupole moment (field-independent basis, Debye-Ang):
   XX=            -53.7681   YY=            -44.2712   ZZ=            -52.8848
   XY=             -0.0000   XZ=              0.0002   YZ=              2.5265

  Exact polarizability:  66.080   0.000  59.378  -0.000  -0.057  57.252
 Approx polarizability:  93.097   0.001  83.240  -0.001  -4.077  97.664

                      1                      2                      3
                      A                      A                      A
 Frequencies --     38.5985               226.2641               302.7430
 Red. masses --      2.9322                 2.7957                 2.1300
 Frc consts  --      0.0026                 0.0843                 0.1150
 IR Inten    --      2.4219                 0.0648                 0.0979

                      4                      5                      6
                      A                      A                      A
 Frequencies --    353.0279               360.6238               411.3776
 Red. masses --      2.9556                 6.8799                 5.7235
 Frc consts  --      0.2170                 0.5272                 0.5707
 IR Inten    --      0.6661                10.5727                21.5563

                      7                      8                      9
                      A                      A                      A
 Frequencies --    506.9350               551.1872               641.4455
 Red. masses --      2.2047                 7.0596                 4.2187
 Frc consts  --      0.3338                 1.2637                 1.0227
 IR Inten    --      7.5487                18.0899                10.9347

                     10                     11                     12
                      A                      A                      A
 Frequencies --    720.3572               809.5495               884.4829
 Red. masses --      2.9435                 1.4324                 2.6335
 Frc consts  --      0.8999                 0.5531                 1.2138
 IR Inten    --     60.2385                 1.2569                 0.1674

                     13                     14                     15
                      A                      A                      A
 Frequencies --    914.1960               916.0111               986.9792
 Red. masses --      2.2048                 1.5965                 1.7883
 Frc consts  --      1.0857                 0.7893                 1.0264
 IR Inten    --      6.5870                13.3855                 0.0601

                     16                     17                     18
                      A                      A                      A
 Frequencies --   1009.1795              1050.2795              1092.1451
 Red. masses --      1.3372                 1.8783                 1.1173
 Frc consts  --      0.8024                 1.2208                 0.7852
 IR Inten    --      0.3192                 1.8759                 3.2846

                     19                     20                     21
                      A                      A                      A
 Frequencies --   1100.7266              1167.1592              1229.7870
 Red. masses --      5.7920                 1.5372                 1.4840
 Frc consts  --      4.1346                 1.2338                 1.3223
 IR Inten    --    126.0405                50.6074                 0.7383

                     22                     23                     24
                      A                      A                      A
 Frequencies --   1236.7568              1290.2521              1310.2682
 Red. masses --      1.4619                 1.5450                 1.3701
 Frc consts  --      1.3175                 1.5154                 1.3858
 IR Inten    --      0.4687                47.2631                13.6868

                     25                     26                     27
                      A                      A                      A
 Frequencies --   1325.7004              1363.9636              1381.2735
 Red. masses --      3.5645                 1.4287                 1.2869
 Frc consts  --      3.6910                 1.5660                 1.4466
 IR Inten    --    124.9416                 5.5352                 0.5029

                     28                     29                     30
                      A                      A                      A
 Frequencies --   1486.8756              1489.6130              1517.8397
 Red. masses --      1.0829                 1.0964                 1.0841
 Frc consts  --      1.4106                 1.4333                 1.4715
 IR Inten    --      1.4628                10.6519                 5.6333

                     31                     32                     33
                      A                      A                      A
 Frequencies --   1529.9069              3064.3910              3068.4689
 Red. masses --      1.0998                 1.0664                 1.0604
 Frc consts  --      1.5166                 5.9003                 5.8823
 IR Inten    --      0.7935                14.8806                22.7437

                     34                     35                     36
                      A                      A                      A
 Frequencies --   3101.8785              3102.0235              3114.6747
 Red. masses --      1.0646                 1.0626                 1.0939
 Frc consts  --      6.0350                 6.0243                 6.2527
 IR Inten    --      6.6265                 1.0419                10.8630

                     37                     38                     39
                      A                      A                      A
 Frequencies --   3121.2575              3170.9032              3171.7999
 Red. masses --      1.1016                 1.1088                 1.1091
 Frc consts  --      6.3229                 6.5684                 6.5743
 IR Inten    --     23.7807                 0.3403                 3.2924

 - Thermochemistry -
 -------------------
 Temperature     0.001 Kelvin.  Pressure   1.00000 Atm.
 Atom     1 has atomic number  8 and mass  15.99491

 Molecular mass:   120.02450 amu.
 Principal axes and moments of inertia in atomic units:
                           1         2         3
     Eigenvalues --   492.68676 912.04601 978.72100
           X            1.00000  -0.00000   0.00000
           Y            0.00000   0.99285   0.11940
           Z           -0.00000  -0.11940   0.99285
 This molecule is an asymmetric top.
 Rotational symmetry number  1.
 Warning -- assumption of classical behavior for rotation
           may cause significant error
 Rotational temperatures (Kelvin)      0.17580     0.09497     0.08850
 Rotational constants (GHZ):           3.66306     1.97878     1.84398
 Zero-point vibrational energy     323714.9 (Joules/Mol)
                                   77.36971 (Kcal/Mol)
 Vibrational temperatures:     55.53   325.54   435.58   507.93   518.86
          (Kelvin)            591.88   729.37   793.04   922.90  1036.43
                             1164.76  1272.57  1315.32  1317.94  1420.04
                             1451.98  1511.12  1571.35  1583.70  1679.28
                             1769.39  1779.42  1856.38  1885.18  1907.39
                             1962.44  1987.34  2139.28  2143.22  2183.83
                             2201.19  4408.98  4414.84  4462.91  4463.12
                             4481.32  4490.79  4562.22  4563.51

 Zero-point correction=                           0.123296 (Hartree/Particle)
 Thermal correction to Energy=                    0.123296
 Thermal correction to Enthalpy=                  0.123297
 Thermal correction to Gibbs Free Energy=         0.123297
 Sum of electronic and zero-point Energies=           -705.696725
 Sum of electronic and thermal Energies=              -705.696725
 Sum of electronic and thermal Enthalpies=            -705.696725
 Sum of electronic and thermal Free Energies=         -705.696725

                     E (Thermal)             CV                S
                      KCal/Mol        Cal/Mol-Kelvin    Cal/Mol-Kelvin
 Total                   77.370              5.962            -32.358
 Electronic               0.000              0.000              0.000
 Translational            0.000              2.981            -22.361
 Rotational               0.000              2.981             -9.997
 Vibrational             77.370              0.000              0.000

 Optimization completed.
    -- Stationary point found.
 Normal termination of Gaussian 16 at Mon Oct 14 01:23:44 2019.
