 Gaussian 16, Revision A.03,
 Gaussian 16:  ES64L-G16RevA.03 25-Dec-2016

 --------------------------------------------------------------
 #P opt freq b3lyp/6-31g(d) geom=connectivity temperature=0.001
 --------------------------------------------------------------

 -------------------
 Title Card Required
 -------------------
 Symbolic Z-matrix:
 Charge =  1 Multiplicity = 1

 SCF Done:  E(RB3LYP) =  -706.093507002     A.U. after   16 cycles
 SCF Done:  E(RB3LYP) =  -706.125500678     A.U. after   13 cycles
 SCF Done:  E(RB3LYP) =  -706.135181567     A.U. after   13 cycles
 SCF Done:  E(RB3LYP) =  -706.138484683     A.U. after   12 cycles
 SCF Done:  E(RB3LYP) =  -706.138753739     A.U. after   10 cycles
 SCF Done:  E(RB3LYP) =  -706.138886064     A.U. after   11 cycles
 SCF Done:  E(RB3LYP) =  -706.138896405     A.U. after   11 cycles
 SCF Done:  E(RB3LYP) =  -706.138949583     A.U. after    8 cycles
 SCF Done:  E(RB3LYP) =  -706.139774565     A.U. after   12 cycles
 SCF Done:  E(RB3LYP) =  -706.143879614     A.U. after   14 cycles
 SCF Done:  E(RB3LYP) =  -706.137743583     A.U. after   14 cycles
 SCF Done:  E(RB3LYP) =  -706.147523431     A.U. after   13 cycles
 SCF Done:  E(RB3LYP) =  -706.148216045     A.U. after   12 cycles
 SCF Done:  E(RB3LYP) =  -706.148630764     A.U. after   12 cycles
 SCF Done:  E(RB3LYP) =  -706.148707325     A.U. after   11 cycles
 SCF Done:  E(RB3LYP) =  -706.148719876     A.U. after   10 cycles
 SCF Done:  E(RB3LYP) =  -706.148722324     A.U. after    8 cycles
 Optimization completed.
    -- Stationary point found.
 Normal termination of Gaussian 16 at Mon Oct 14 01:29:02 2019.

 --------------------------------------------------------------------
 #P Geom=AllCheck Guess=TCheck SCRF=Check GenChk RB3LYP/6-31G(d) Freq
 --------------------------------------------------------------------

 Structure from the checkpoint file:  "23_p.chk"
 -------------------
 Title Card Required
 -------------------
 Charge =  1 Multiplicity = 1

                         Standard orientation:
 ---------------------------------------------------------------------
 Center     Atomic      Atomic             Coordinates (Angstroms)
 Number     Number       Type             X           Y           Z
 ---------------------------------------------------------------------
      1          8           0       -1.690677    0.462956   -1.110106
      2         16           0       -0.713994    0.049376   -0.113508
      3          6           0        0.496138    1.325514    0.416984
      4          6           0        1.847955    0.750679   -0.046830
      5          6           0        1.788963   -0.787782    0.095730
      6          6           0        0.475295   -1.261812   -0.544832
      7          8           0       -1.352658   -0.573449    1.233202
      8          1           0        0.192693    2.263759   -0.054331
      9          1           0        0.410300    1.399536    1.505068
     10          1           0        2.033503    1.032006   -1.088589
     11          1           0        2.651008    1.177566    0.559468
     12          1           0        2.632812   -1.265847   -0.408701
     13          1           0        1.820373   -1.082638    1.149639
     14          1           0        0.499823   -1.254932   -1.640354
     15          1           0        0.073984   -2.212440   -0.185728
     16          1           0       -2.194021   -0.122666    1.468574
 ---------------------------------------------------------------------

 SCF Done:  E(RB3LYP) =  -706.148722324     A.U. after    1 cycles

 The electronic state is 1-A.
 Alpha  occ. eigenvalues --  -89.30968 -19.42220 -19.37294 -10.42728 -10.42657
 Alpha  occ. eigenvalues --  -10.38647 -10.38591  -8.34506  -6.31089  -6.30728
 Alpha  occ. eigenvalues --   -6.30584  -1.33110  -1.24771  -1.06018  -0.95240
 Alpha  occ. eigenvalues --   -0.93453  -0.82639  -0.79394  -0.75437  -0.70670
 Alpha  occ. eigenvalues --   -0.68142  -0.66658  -0.64810  -0.63967  -0.60795
 Alpha  occ. eigenvalues --   -0.58561  -0.57330  -0.56472  -0.54996  -0.53082
 Alpha  occ. eigenvalues --   -0.52794  -0.50157
 Alpha virt. eigenvalues --   -0.20056  -0.17032  -0.14323  -0.13949  -0.10989
 Alpha virt. eigenvalues --   -0.07539  -0.05138  -0.04660  -0.02541  -0.01397
 Alpha virt. eigenvalues --   -0.00530   0.01839   0.02286   0.03358   0.04430

 Mulliken charges:
               1
     1  O   -0.396716
     2  S    1.159477
     3  C   -0.501038
     4  C   -0.310565
     5  C   -0.311545
     6  C   -0.505541
     7  O   -0.602451
     8  H    0.273789
     9  H    0.259400
    10  H    0.213286
    11  H    0.234369
    12  H    0.236294
    13  H    0.212219
    14  H    0.268582
    15  H    0.279319
    16  H    0.491120
 Sum of Mulliken charges =   1.00000

 Dipole moment (field-independent basis, Debye):
    X=              1.4489    Y=              0.2219    Z=              1.7863  Tot=              2.3107
 Quadrupole moment (field-independent basis, Debye-Ang):
   XX=            -35.4137   YY=            -39.2194   ZZ=            -43.3168
   XY=              0.0624   XZ=             -6.4622   YZ=              3.7432

  Exact polarizability:  68.298  -0.884  58.031   0.187   0.129  55.255
 Approx polarizability:  97.685  -3.281  83.915   5.611  -4.588  90.155

                      1                      2                      3
                      A                      A                      A
 Frequencies --     59.6992               196.0574               244.4196
 Red. masses --      2.8353                 2.3697                 1.4072
 Frc consts  --      0.0060                 0.0537                 0.0495
 IR Inten    --      1.6258                39.5602                57.7188

                      4                      5                      6
                      A                      A                      A
 Frequencies --    287.9828               331.5243               353.2673
 Red. masses --      2.3648                 3.1270                 4.4302
 Frc consts  --      0.1156                 0.2025                 0.3257
 IR Inten    --      3.6574                11.5914                54.2998

                      7                      8                      9
                      A                      A                      A
 Frequencies --    368.3124               497.6818               506.7503
 Red. masses --      2.8310                 5.8017                 2.3757
 Frc consts  --      0.2263                 0.8467                 0.3594
 IR Inten    --     12.4461                20.0717                 5.6423

                     10                     11                     12
                      A                      A                      A
 Frequencies --    603.5007               702.3249               798.6436
 Red. masses --      3.9848                 2.8010                 1.4388
 Frc consts  --      0.8551                 0.8140                 0.5407
 IR Inten    --      1.3289                27.9898                 8.2353

                     13                     14                     15
                      A                      A                      A
 Frequencies --    823.4720               872.0870               910.4896
 Red. masses --      6.0546                 2.7867                 2.3804
 Frc consts  --      2.4190                 1.2487                 1.1626
 IR Inten    --    149.2609                 1.7584                 3.5277

                     16                     17                     18
                      A                      A                      A
 Frequencies --    920.3763               967.7395              1025.8485
 Red. masses --      1.6419                 1.9553                 1.6495
 Frc consts  --      0.8195                 1.0789                 1.0228
 IR Inten    --     35.0148                 2.2624                 0.2583

                     19                     20                     21
                      A                      A                      A
 Frequencies --   1046.4119              1127.8707              1147.8310
 Red. masses --      1.6959                 1.1734                 1.2122
 Frc consts  --      1.0941                 0.8795                 0.9410
 IR Inten    --      3.4783                 7.8071                61.9124

                     22                     23                     24
                      A                      A                      A
 Frequencies --   1172.9028              1228.5392              1240.2838
 Red. masses --      1.3278                 1.3878                 1.3455
 Frc consts  --      1.0762                 1.2341                 1.2195
 IR Inten    --      2.1545                 3.5041                 2.0732

                     25                     26                     27
                      A                      A                      A
 Frequencies --   1280.8866              1300.8268              1330.5679
 Red. masses --      2.3671                 1.2658                 1.7694
 Frc consts  --      2.2882                 1.2620                 1.8456
 IR Inten    --     93.7978                 6.5155                65.7785

                     28                     29                     30
                      A                      A                      A
 Frequencies --   1363.3783              1387.0893              1467.9339
 Red. masses --      1.3538                 1.2678                 1.0837
 Frc consts  --      1.4827                 1.4372                 1.3759
 IR Inten    --      1.3861                 0.4597                15.7637

                     31                     32                     33
                      A                      A                      A
 Frequencies --   1470.3096              1514.1471              1523.4960
 Red. masses --      1.0838                 1.0784                 1.0904
 Frc consts  --      1.3805                 1.4567                 1.4911
 IR Inten    --     14.1630                15.1304                 2.9602

                     34                     35                     36
                      A                      A                      A
 Frequencies --   3089.2524              3093.6758              3097.9782
 Red. masses --      1.0670                 1.0628                 1.0600
 Frc consts  --      5.9996                 5.9930                 5.9942
 IR Inten    --      0.5963                 7.3097                 5.5316

                     37                     38                     39
                      A                      A                      A
 Frequencies --   3104.1313              3145.0992              3151.5878
 Red. masses --      1.0581                 1.1027                 1.1059
 Frc consts  --      6.0072                 6.4265                 6.4720
 IR Inten    --      4.9046                 0.9982                 3.2736

                     40                     41                     42
                      A                      A                      A
 Frequencies --   3174.0837              3175.9859              3617.5281
 Red. masses --      1.1074                 1.1107                 1.0665
 Frc consts  --      6.5734                 6.6007                 8.2227
 IR Inten    --      4.8259                 8.4462               263.4282

 - Thermochemistry -
 -------------------
 Temperature     0.001 Kelvin.  Pressure   1.00000 Atm.
 Atom     1 has atomic number  8 and mass  15.99491

 Molecular mass:   121.03233 amu.
 Principal axes and moments of inertia in atomic units:
                           1         2         3
     Eigenvalues --   508.78627 938.163861018.76098
           X            0.99976   0.00672  -0.02078
           Y           -0.00383   0.99070   0.13598
           Z            0.02150  -0.13586   0.99049
 This molecule is an asymmetric top.
 Rotational symmetry number  1.
 Warning -- assumption of classical behavior for rotation
           may cause significant error
 Rotational temperatures (Kelvin)      0.17024     0.09232     0.08502
 Rotational constants (GHZ):           3.54715     1.92370     1.77151
 Zero-point vibrational energy     351235.4 (Joules/Mol)
                                   83.94728 (Kcal/Mol)
 Vibrational temperatures:     85.89   282.08   351.67   414.34   476.99
          (Kelvin)            508.27   529.92   716.05   729.10   868.30
                             1010.49  1149.07  1184.79  1254.74  1309.99
                             1324.22  1392.36  1475.97  1505.55  1622.75
                             1651.47  1687.55  1767.59  1784.49  1842.91
                             1871.60  1914.39  1961.60  1995.71  2112.03
                             2115.45  2178.52  2191.97  4444.75  4451.11
                             4457.30  4466.15  4525.10  4534.43  4566.80
                             4569.54  5204.82

 Zero-point correction=                           0.133779 (Hartree/Particle)
 Thermal correction to Energy=                    0.133779
 Thermal correction to Enthalpy=                  0.133779
 Thermal correction to Gibbs Free Energy=         0.133779
 Sum of electronic and zero-point Energies=           -706.014944
 Sum of electronic and thermal Energies=              -706.014944
 Sum of electronic and thermal Enthalpies=            -706.014944
 Sum of electronic and thermal Free Energies=         -706.014944

                     E (Thermal)             CV                S
                      KCal/Mol        Cal/Mol-Kelvin    Cal/Mol-Kelvin
 Total                   83.947              5.962            -32.233
 Electronic               0.000              0.000              0.000
 Translational            0.000              2.981            -22.337
 Rotational               0.000              2.981             -9.897
 Vibrational             83.947              0.000              0.000

                           ! Non-Optimized Parameters !
 Normal termination of Gaussian 16 at Mon Oct 14 01:29:17 2019.
