 Gaussian 16, Revision A.03,
 Gaussian 16:  ES64L-G16RevA.03 25-Dec-2016

 --------------------------------------------------------------
 #P opt freq b3lyp/6-31g(d) geom=connectivity temperature=0.001
 --------------------------------------------------------------

 -------------------
 Title Card Required
 -------------------
 Symbolic Z-matrix:
 Charge =  0 Multiplicity = 1

 SCF Done:  E(RB3LYP) =  -1010.63322930     A.U. after   16 cycles
 SCF Done:  E(RB3LYP) =  -1010.66324658     A.U. after   13 cycles
 SCF Done:  E(RB3LYP) =  -1010.66712378     A.U. after   13 cycles
 SCF Done:  E(RB3LYP) =  -1010.66772122     A.U. after   11 cycles
 SCF Done:  E(RB3LYP) =  -1010.66773567     A.U. after    9 cycles
 SCF Done:  E(RB3LYP) =  -1010.66773687     A.U. after    8 cycles
 Optimization completed.
    -- Stationary point found.
 Normal termination of Gaussian 16 at Mon Oct 14 01:28:59 2019.

 --------------------------------------------------------------------
 #P Geom=AllCheck Guess=TCheck SCRF=Check GenChk RB3LYP/6-31G(d) Freq
 --------------------------------------------------------------------

 Structure from the checkpoint file:  "24.chk"
 -------------------
 Title Card Required
 -------------------
 Charge =  0 Multiplicity = 1

                         Standard orientation:
 ---------------------------------------------------------------------
 Center     Atomic      Atomic             Coordinates (Angstroms)
 Number     Number       Type             X           Y           Z
 ---------------------------------------------------------------------
      1          8           0        0.000054    2.335601   -1.266884
      2         16           0        0.000001    1.589234    0.000263
      3          6           0        1.291225    0.334528   -0.000226
      4          6           0        0.739428   -0.954361    0.000243
      5          6           0        1.604937   -2.050444    0.000322
      6          6           0        2.985284   -1.833578   -0.000086
      7          6           0        3.511446   -0.538038   -0.000645
      8          6           0        2.657276    0.569549   -0.000733
      9          6           0       -0.739426   -0.954362    0.000226
     10          6           0       -1.291225    0.334527   -0.000279
     11          6           0       -2.657277    0.569547   -0.000772
     12          6           0       -3.511445   -0.538041   -0.000662
     13          6           0       -2.985281   -1.833581   -0.000075
     14          6           0       -1.604934   -2.050445    0.000338
     15          8           0       -0.000061    2.333740    1.268532
     16          1           0        1.213774   -3.063758    0.000681
     17          1           0        3.658537   -2.686075   -0.000005
     18          1           0        4.587095   -0.389238   -0.001071
     19          1           0        3.049468    1.581940   -0.001264
     20          1           0       -3.049470    1.581937   -0.001315
     21          1           0       -4.587095   -0.389243   -0.001085
     22          1           0       -3.658533   -2.686078    0.000027
     23          1           0       -1.213769   -3.063758    0.000733
 ---------------------------------------------------------------------

 SCF Done:  E(RB3LYP) =  -1010.66773687     A.U. after    1 cycles

 The electronic state is 1-A.
 Alpha  occ. eigenvalues --  -89.09435 -19.13969 -19.13965 -10.23153 -10.23125
 Alpha  occ. eigenvalues --  -10.23039 -10.23036 -10.22183 -10.22183 -10.21878
 Alpha  occ. eigenvalues --  -10.21878 -10.21742 -10.21742 -10.21581 -10.21581
 Alpha  occ. eigenvalues --   -8.12308  -6.08712  -6.08677  -6.08663  -1.09656
 Alpha  occ. eigenvalues --   -0.99093  -0.90801  -0.87372  -0.81671  -0.78905
 Alpha  occ. eigenvalues --   -0.77179  -0.74634  -0.69756  -0.65633  -0.61807
 Alpha  occ. eigenvalues --   -0.60712  -0.60117  -0.53896  -0.53280  -0.50077
 Alpha  occ. eigenvalues --   -0.48310  -0.48229  -0.45899  -0.45790  -0.45290
 Alpha  occ. eigenvalues --   -0.45188  -0.44697  -0.41049  -0.39765  -0.39627
 Alpha  occ. eigenvalues --   -0.38406  -0.37641  -0.36908  -0.32200  -0.32009
 Alpha  occ. eigenvalues --   -0.31502  -0.30362  -0.28803  -0.27093  -0.27051
 Alpha  occ. eigenvalues --   -0.24493
 Alpha virt. eigenvalues --   -0.06662  -0.04646  -0.02024   0.01466   0.05519
 Alpha virt. eigenvalues --    0.06292   0.07146   0.09561   0.09632   0.11028
 Alpha virt. eigenvalues --    0.12662   0.14084   0.14709   0.16848   0.17117

 Mulliken charges:
               1
     1  O   -0.503731
     2  S    1.137863
     3  C   -0.215880
     4  C    0.124865
     5  C   -0.168725
     6  C   -0.132771
     7  C   -0.115600
     8  C   -0.169325
     9  C    0.124863
    10  C   -0.215880
    11  C   -0.169326
    12  C   -0.115600
    13  C   -0.132771
    14  C   -0.168725
    15  O   -0.503751
    16  H    0.143471
    17  H    0.146150
    18  H    0.148330
    19  H    0.174296
    20  H    0.174296
    21  H    0.148329
    22  H    0.146150
    23  H    0.143470
 Sum of Mulliken charges =  -0.00000

 Dipole moment (field-independent basis, Debye):
    X=              0.0000    Y=             -5.5153    Z=             -0.0035  Tot=              5.5153
 Quadrupole moment (field-independent basis, Debye-Ang):
   XX=            -69.2991   YY=            -93.0316   ZZ=           -101.1473
   XY=              0.0000   XZ=              0.0003   YZ=             -0.0068

  Exact polarizability: 211.519  -0.000 157.516  -0.000  -0.020  59.132
 Approx polarizability: 329.198  -0.000 286.591  -0.001  -0.051 107.480

                      1                      2                      3
                      A                      A                      A
 Frequencies --     77.0118               105.3548               115.4647
 Red. masses --      4.6584                 5.6686                 6.8091
 Frc consts  --      0.0163                 0.0371                 0.0535
 IR Inten    --      2.8118                 0.0000                 0.0011

                      4                      5                      6
                      A                      A                      A
 Frequencies --    167.3741               193.9919               237.0217
 Red. masses --      5.4117                 5.1375                 8.8773
 Frc consts  --      0.0893                 0.1139                 0.2938
 IR Inten    --      0.0000                 0.5734                 7.2816

                      7                      8                      9
                      A                      A                      A
 Frequencies --    303.1118               337.3483               352.9285
 Red. masses --      4.4218                 5.6493                 9.2819
 Frc consts  --      0.2394                 0.3788                 0.6812
 IR Inten    --      0.0000                 2.4306                 5.7262

                     10                     11                     12
                      A                      A                      A
 Frequencies --    401.4820               430.5164               457.2341
 Red. masses --      6.7804                 3.4215                 3.6468
 Frc consts  --      0.6439                 0.3736                 0.4492
 IR Inten    --      0.7614                 5.8991                 0.0000

                     13                     14                     15
                      A                      A                      A
 Frequencies --    479.3538               548.5829               553.5921
 Red. masses --      6.1227                 4.6772                14.7019
 Frc consts  --      0.8289                 0.8293                 2.6546
 IR Inten    --      6.4997                12.8022                42.9663

                     16                     17                     18
                      A                      A                      A
 Frequencies --    565.4672               571.6095               630.1373
 Red. masses --      3.5547                10.4765                 7.0223
 Frc consts  --      0.6697                 2.0168                 1.6429
 IR Inten    --      0.0003                41.5757                 9.6997

                     19                     20                     21
                      A                      A                      A
 Frequencies --    707.1591               725.2026               732.9930
 Red. masses --      6.4868                 4.6625                 7.7116
 Frc consts  --      1.9112                 1.4447                 2.4412
 IR Inten    --      2.2647                16.4853                36.7240

                     22                     23                     24
                      A                      A                      A
 Frequencies --    743.8008               770.1355               775.1763
 Red. masses --      1.9656                 1.2750                 6.0286
 Frc consts  --      0.6407                 0.4456                 2.1344
 IR Inten    --      0.0000                74.7283                 0.9366

                     25                     26                     27
                      A                      A                      A
 Frequencies --    789.0307               882.8157               883.0668
 Red. masses --      1.9733                 1.2920                 1.4218
 Frc consts  --      0.7238                 0.5933                 0.6532
 IR Inten    --      0.0000                 0.3000                 0.0000

                     28                     29                     30
                      A                      A                      A
 Frequencies --    947.8451               949.0178               990.1866
 Red. masses --      1.3823                 1.3584                 1.2892
 Frc consts  --      0.7317                 0.7208                 0.7447
 IR Inten    --      0.0000                 0.9108                 0.0000

                     31                     32                     33
                      A                      A                      A
 Frequencies --    992.6407              1022.1150              1053.9305
 Red. masses --      1.2742                 7.1165                 4.9727
 Frc consts  --      0.7397                 4.3804                 3.2544
 IR Inten    --      0.0084                 0.1964                13.9884

                     34                     35                     36
                      A                      A                      A
 Frequencies --   1054.9993              1061.7017              1097.3958
 Red. masses --      3.0713                 2.6374                 2.3584
 Frc consts  --      2.0141                 1.7516                 1.6733
 IR Inten    --      0.1450                13.7552                 9.0676

                     37                     38                     39
                      A                      A                      A
 Frequencies --   1131.1923              1158.1628              1162.4406
 Red. masses --      3.8234                 2.5721                 1.4744
 Frc consts  --      2.8825                 2.0327                 1.1739
 IR Inten    --    102.9802                83.2806                 1.9864

                     40                     41                     42
                      A                      A                      A
 Frequencies --   1195.7658              1198.5686              1256.2768
 Red. masses --      1.1431                 1.1157                 2.0421
 Frc consts  --      0.9630                 0.9443                 1.8989
 IR Inten    --      0.0490                 0.3407                 0.8084

                     43                     44                     45
                      A                      A                      A
 Frequencies --   1302.1208              1311.7924              1328.4378
 Red. masses --     20.5679                 1.5109                 1.9272
 Frc consts  --     20.5467                 1.5318                 2.0039
 IR Inten    --    173.6695                 8.0743                 0.5099

                     46                     47                     48
                      A                      A                      A
 Frequencies --   1349.0127              1387.5560              1478.4757
 Red. masses --      6.1068                 5.0852                 2.2614
 Frc consts  --      6.5479                 5.7685                 2.9125
 IR Inten    --      0.1274                 0.0054                 4.0793

                     49                     50                     51
                      A                      A                      A
 Frequencies --   1494.2040              1515.3238              1523.3309
 Red. masses --      2.1879                 2.3826                 2.8244
 Frc consts  --      2.8780                 3.2234                 3.8616
 IR Inten    --     35.6717                 3.4815                 4.1428

                     52                     53                     54
                      A                      A                      A
 Frequencies --   1631.2016              1643.8210              1649.5390
 Red. masses --      5.1364                 6.7549                 6.1741
 Frc consts  --      8.0524                10.7542                 9.8980
 IR Inten    --      5.2999                 0.0497                 0.2996

                     55                     56                     57
                      A                      A                      A
 Frequencies --   1653.7097              3191.6138              3193.8704
 Red. masses --      6.2275                 1.0865                 1.0862
 Frc consts  --     10.0342                 6.5207                 6.5279
 IR Inten    --     10.2165                 4.1483                 0.4468

                     58                     59                     60
                      A                      A                      A
 Frequencies --   3202.4060              3205.1263              3211.7033
 Red. masses --      1.0896                 1.0893                 1.0933
 Frc consts  --      6.5838                 6.5933                 6.6442
 IR Inten    --      3.6113                 4.1510                 4.3539

                     61                     62                     63
                      A                      A                      A
 Frequencies --   3212.9422              3220.9483              3221.4469
 Red. masses --      1.0935                 1.0967                 1.0969
 Frc consts  --      6.6509                 6.7036                 6.7068
 IR Inten    --     21.7381                29.8296                 1.6249

 - Thermochemistry -
 -------------------
 Temperature     0.001 Kelvin.  Pressure   1.00000 Atm.
 Atom     1 has atomic number  8 and mass  15.99491

 Molecular mass:   216.02450 amu.
 Principal axes and moments of inertia in atomic units:
                           1         2         3
     Eigenvalues --  2020.642693345.195394998.65837
           X            1.00000   0.00000   0.00000
           Y           -0.00000   1.00000  -0.00002
           Z           -0.00000   0.00002   1.00000
 This molecule is an asymmetric top.
 Rotational symmetry number  1.
 Warning -- assumption of classical behavior for rotation
           may cause significant error
 Rotational temperatures (Kelvin)      0.04286     0.02589     0.01733
 Rotational constants (GHZ):           0.89315     0.53950     0.36105
 Zero-point vibrational energy     447031.2 (Joules/Mol)
                                  106.84303 (Kcal/Mol)
 Vibrational temperatures:    110.80   151.58   166.13   240.81   279.11
          (Kelvin)            341.02   436.11   485.37   507.79   577.64
                              619.42   657.86   689.68   789.29   796.50
                              813.58   822.42   906.63  1017.44  1043.40
                             1054.61  1070.16  1108.05  1115.31  1135.24
                             1270.17  1270.54  1363.74  1365.43  1424.66
                             1428.19  1470.60  1516.37  1517.91  1527.55
                             1578.91  1627.53  1666.34  1672.49  1720.44
                             1724.47  1807.50  1873.46  1887.38  1911.33
                             1940.93  1996.38  2127.20  2149.83  2180.21
                             2191.73  2346.94  2365.09  2373.32  2379.32
                             4592.02  4595.27  4607.55  4611.46  4620.92
                             4622.71  4634.23  4634.94

 Zero-point correction=                           0.170265 (Hartree/Particle)
 Thermal correction to Energy=                    0.170265
 Thermal correction to Enthalpy=                  0.170265
 Thermal correction to Gibbs Free Energy=         0.170265
 Sum of electronic and zero-point Energies=          -1010.497472
 Sum of electronic and thermal Energies=             -1010.497472
 Sum of electronic and thermal Enthalpies=           -1010.497472
 Sum of electronic and thermal Free Energies=        -1010.497472

                     E (Thermal)             CV                S
                      KCal/Mol        Cal/Mol-Kelvin    Cal/Mol-Kelvin
 Total                  106.843              5.962            -26.293
 Electronic               0.000              0.000              0.000
 Translational            0.000              2.981            -20.610
 Rotational               0.000              2.981             -5.683
 Vibrational            106.843              0.000              0.000

                           ! Non-Optimized Parameters !
 Normal termination of Gaussian 16 at Mon Oct 14 01:30:02 2019.
