 Gaussian 16, Revision A.03,
 Gaussian 16:  ES64L-G16RevA.03 25-Dec-2016

 --------------------------------------------------------------
 #P opt freq b3lyp/6-31g(d) geom=connectivity temperature=0.001
 --------------------------------------------------------------

 -------------------
 Title Card Required
 -------------------
 Symbolic Z-matrix:
 Charge =  1 Multiplicity = 1

 SCF Done:  E(RB3LYP) =  -1010.97450106     A.U. after   16 cycles
 SCF Done:  E(RB3LYP) =  -1010.99922515     A.U. after   13 cycles
 SCF Done:  E(RB3LYP) =  -1011.00315937     A.U. after   13 cycles
 SCF Done:  E(RB3LYP) =  -1011.00480600     A.U. after   12 cycles
 SCF Done:  E(RB3LYP) =  -1011.00557553     A.U. after   13 cycles
 SCF Done:  E(RB3LYP) =  -1011.00608044     A.U. after   12 cycles
 SCF Done:  E(RB3LYP) =  -1011.00693534     A.U. after   12 cycles
 SCF Done:  E(RB3LYP) =  -1011.00749140     A.U. after   12 cycles
 SCF Done:  E(RB3LYP) =  -1011.00755362     A.U. after   12 cycles
 SCF Done:  E(RB3LYP) =  -1011.00757088     A.U. after   10 cycles
 SCF Done:  E(RB3LYP) =  -1011.00757985     A.U. after   10 cycles
 SCF Done:  E(RB3LYP) =  -1011.00758146     A.U. after   10 cycles
 SCF Done:  E(RB3LYP) =  -1011.00758175     A.U. after    8 cycles
 Optimization completed.
    -- Stationary point found.
 Normal termination of Gaussian 16 at Mon Oct 14 01:31:48 2019.

 --------------------------------------------------------------------
 #P Geom=AllCheck Guess=TCheck SCRF=Check GenChk RB3LYP/6-31G(d) Freq
 --------------------------------------------------------------------

 Structure from the checkpoint file:  "24_p.chk"
 -------------------
 Title Card Required
 -------------------
 Charge =  1 Multiplicity = 1

                         Standard orientation:
 ---------------------------------------------------------------------
 Center     Atomic      Atomic             Coordinates (Angstroms)
 Number     Number       Type             X           Y           Z
 ---------------------------------------------------------------------
      1          8           0        0.154174    2.183731   -1.365430
      2         16           0        0.004863    1.487821    0.090392
      3          6           0        1.297729    0.292033    0.056029
      4          6           0        0.732073   -0.995078   -0.008365
      5          6           0        1.604281   -2.079777   -0.037543
      6          6           0        2.985933   -1.849001    0.002199
      7          6           0        3.513153   -0.555323    0.070568
      8          6           0        2.661101    0.552928    0.097699
      9          6           0       -0.747593   -0.989651   -0.023550
     10          6           0       -1.303923    0.302066    0.032248
     11          6           0       -2.665833    0.569075    0.080149
     12          6           0       -3.525550   -0.533322    0.047401
     13          6           0       -3.006915   -1.830238   -0.022432
     14          6           0       -1.626544   -2.069069   -0.052868
     15          8           0       -0.058677    2.495639    1.143478
     16          1           0        1.224615   -3.095011   -0.089102
     17          1           0        3.662309   -2.697811   -0.018660
     18          1           0        4.587154   -0.406299    0.103486
     19          1           0        3.049918    1.564577    0.151946
     20          1           0       -3.051584    1.581328    0.149059
     21          1           0       -4.598536   -0.377183    0.081181
     22          1           0       -3.688540   -2.674746   -0.045324
     23          1           0       -1.252390   -3.086909   -0.092762
     24          1           0       -0.282192    3.064105   -1.359679
 ---------------------------------------------------------------------

 SCF Done:  E(RB3LYP) =  -1011.00758175     A.U. after    1 cycles

 The electronic state is 1-A.
 Alpha  occ. eigenvalues --  -89.29212 -19.39195 -19.34451 -10.39404 -10.39341
 Alpha  occ. eigenvalues --  -10.38303 -10.38273 -10.37261 -10.37134 -10.35734
 Alpha  occ. eigenvalues --  -10.35680 -10.35537 -10.35506 -10.35223 -10.35115
 Alpha  occ. eigenvalues --   -8.32454  -6.29013  -6.28731  -6.28608  -1.30445
 Alpha  occ. eigenvalues --   -1.21588  -1.07306  -1.01954  -0.97976  -0.94322
 Alpha  occ. eigenvalues --   -0.91874  -0.89133  -0.87799  -0.80345  -0.78170
 Alpha  occ. eigenvalues --   -0.77071  -0.75090  -0.72706  -0.68887  -0.68134
 Alpha  occ. eigenvalues --   -0.66197  -0.63673  -0.62908  -0.61372  -0.60219
 Alpha  occ. eigenvalues --   -0.59913  -0.59572  -0.58645  -0.56587  -0.55022
 Alpha  occ. eigenvalues --   -0.53572  -0.52843  -0.52097  -0.51603  -0.51074
 Alpha  occ. eigenvalues --   -0.50389  -0.48047  -0.44846  -0.43099  -0.41875
 Alpha  occ. eigenvalues --   -0.38878
 Alpha virt. eigenvalues --   -0.23718  -0.19019  -0.16758  -0.15363  -0.12490
 Alpha virt. eigenvalues --   -0.10820  -0.09535  -0.08813  -0.06924  -0.03453
 Alpha virt. eigenvalues --   -0.01911  -0.00789   0.00280   0.01507   0.01961

 Mulliken charges:
               1
     1  O   -0.582623
     2  S    1.164305
     3  C   -0.256131
     4  C    0.158388
     5  C   -0.159268
     6  C   -0.115559
     7  C   -0.110827
     8  C   -0.136587
     9  C    0.153254
    10  C   -0.239987
    11  C   -0.147523
    12  C   -0.109879
    13  C   -0.116380
    14  C   -0.158045
    15  O   -0.405544
    16  H    0.186982
    17  H    0.198611
    18  H    0.198972
    19  H    0.209989
    20  H    0.202747
    21  H    0.198311
    22  H    0.198552
    23  H    0.187324
    24  H    0.480919
 Sum of Mulliken charges =   1.00000

 Dipole moment (field-independent basis, Debye):
    X=             -0.5731    Y=             -0.6575    Z=             -1.4920  Tot=              1.7283
 Quadrupole moment (field-independent basis, Debye-Ang):
   XX=            -47.1158   YY=            -61.2093   ZZ=            -94.6163
   XY=             -2.2175   XZ=              1.4235   YZ=             -6.2546

  Exact polarizability: 213.968  -0.840 160.474  -0.087   3.040  58.537
 Approx polarizability: 342.354  -1.084 294.916  -1.750  13.260 101.940

                      1                      2                      3
                      A                      A                      A
 Frequencies --     78.5379                99.4607               110.2645
 Red. masses --      4.3123                 5.9675                 5.6651
 Frc consts  --      0.0157                 0.0348                 0.0406
 IR Inten    --      1.2173                 1.1235                 3.7477

                      4                      5                      6
                      A                      A                      A
 Frequencies --    155.7771               195.0994               223.9058
 Red. masses --      4.4221                 4.9921                 5.5230
 Frc consts  --      0.0632                 0.1120                 0.1631
 IR Inten    --      7.6599                 0.3908                28.8383

                      7                      8                      9
                      A                      A                      A
 Frequencies --    240.2366               299.0498               337.7547
 Red. masses --      1.5708                 4.2258                 3.9414
 Frc consts  --      0.0534                 0.2227                 0.2649
 IR Inten    --     35.5180                 0.9520                11.0445

                     10                     11                     12
                      A                      A                      A
 Frequencies --    359.6150               403.0961               428.4440
 Red. masses --      4.3511                 6.3060                 3.4393
 Frc consts  --      0.3315                 0.6037                 0.3720
 IR Inten    --     26.0740                 3.9926                 9.4305

                     13                     14                     15
                      A                      A                      A
 Frequencies --    442.9224               471.4152               499.2201
 Red. masses --      3.5948                 6.7076                 6.6080
 Frc consts  --      0.4155                 0.8783                 0.9703
 IR Inten    --      0.8967                16.1392                55.7698

                     16                     17                     18
                      A                      A                      A
 Frequencies --    525.3041               551.3859               551.9617
 Red. masses --      5.1294                 8.3811                 3.3721
 Frc consts  --      0.8339                 1.5013                 0.6053
 IR Inten    --     11.4658                32.5754                 0.9146

                     19                     20                     21
                      A                      A                      A
 Frequencies --    622.9029               697.5675               703.4248
 Red. masses --      7.0393                 6.4632                 4.6341
 Frc consts  --      1.6092                 1.8530                 1.3510
 IR Inten    --      3.1279                 1.4188                 8.4367

                     22                     23                     24
                      A                      A                      A
 Frequencies --    732.8800               735.0023               766.7983
 Red. masses --      3.0393                 6.7658                 5.8859
 Frc consts  --      0.9618                 2.1535                 2.0390
 IR Inten    --      2.8823                31.9357                 7.7595

                     25                     26                     27
                      A                      A                      A
 Frequencies --    775.9284               782.2633               832.3484
 Red. masses --      1.2408                 1.4589                14.4903
 Frc consts  --      0.4401                 0.5260                 5.9148
 IR Inten    --    107.8207                 0.5309               238.2327

                     28                     29                     30
                      A                      A                      A
 Frequencies --    892.4672               896.1559               969.4328
 Red. masses --      1.2738                 1.3840                 1.3684
 Frc consts  --      0.5978                 0.6549                 0.7577
 IR Inten    --      1.4635                 0.0177                 0.1826

                     31                     32                     33
                      A                      A                      A
 Frequencies --    971.0142              1015.1431              1021.4246
 Red. masses --      1.3588                 7.1468                 1.3516
 Frc consts  --      0.7548                 4.3393                 0.8308
 IR Inten    --      0.4736                 0.0576                 0.0442

                     34                     35                     36
                      A                      A                      A
 Frequencies --   1023.4682              1042.7683              1048.9397
 Red. masses --      1.3369                 4.5592                 4.4805
 Frc consts  --      0.8251                 2.9209                 2.9046
 IR Inten    --      0.2126                16.1184                 9.3629

                     37                     38                     39
                      A                      A                      A
 Frequencies --   1063.2981              1080.9214              1148.0150
 Red. masses --      2.6132                 1.9848                 1.9050
 Frc consts  --      1.7407                 1.3663                 1.4793
 IR Inten    --     14.8987                19.0485                 5.1669

                     40                     41                     42
                      A                      A                      A
 Frequencies --   1155.4795              1166.8143              1204.5972
 Red. masses --      1.3545                 1.4451                 1.1592
 Frc consts  --      1.0655                 1.1592                 0.9910
 IR Inten    --     43.9726                12.6044                 2.4653

                     43                     44                     45
                      A                      A                      A
 Frequencies --   1208.7049              1248.4100              1277.6376
 Red. masses --      1.1073                 2.0871                 6.2367
 Frc consts  --      0.9531                 1.9165                 5.9981
 IR Inten    --      0.7953                 1.5188               203.4085

                     46                     47                     48
                      A                      A                      A
 Frequencies --   1315.1244              1331.2632              1348.9120
 Red. masses --      1.5348                 1.8136                 5.4360
 Frc consts  --      1.5640                 1.8938                 5.8277
 IR Inten    --      9.1827                 3.2344                22.1091

                     49                     50                     51
                      A                      A                      A
 Frequencies --   1402.6403              1471.9227              1495.6321
 Red. masses --      4.6590                 2.2584                 2.1668
 Frc consts  --      5.4005                 2.8829                 2.8558
 IR Inten    --      4.0923                 0.2910                56.9130

                     52                     53                     54
                      A                      A                      A
 Frequencies --   1504.3737              1525.1517              1623.8979
 Red. masses --      2.2977                 2.7906                 4.8947
 Frc consts  --      3.0637                 3.8244                 7.6048
 IR Inten    --      0.2289                21.5192                22.6571

                     55                     56                     57
                      A                      A                      A
 Frequencies --   1631.9910              1638.7816              1642.6794
 Red. masses --      6.1684                 6.2213                 6.2329
 Frc consts  --      9.6796                 9.8441                 9.9093
 IR Inten    --     17.9436                 0.3499                10.9021

                     58                     59                     60
                      A                      A                      A
 Frequencies --   3215.0979              3216.8513              3220.8188
 Red. masses --      1.0888                 1.0885                 1.0908
 Frc consts  --      6.6312                 6.6366                 6.6667
 IR Inten    --      1.3005                 0.2071                 0.1767

                     61                     62                     63
                      A                      A                      A
 Frequencies --   3224.2725              3227.7630              3229.8161
 Red. masses --      1.0907                 1.0939                 1.0940
 Frc consts  --      6.6808                 6.7146                 6.7242
 IR Inten    --      0.8481                 0.1938                 0.0200

                     64                     65                     66
                      A                      A                      A
 Frequencies --   3237.3173              3238.2768              3618.7961
 Red. masses --      1.0974                 1.0976                 1.0660
 Frc consts  --      6.7760                 6.7812                 8.2253
 IR Inten    --      0.1795                 0.5438               236.9764

 - Thermochemistry -
 -------------------
 Temperature     0.001 Kelvin.  Pressure   1.00000 Atm.
 Atom     1 has atomic number  8 and mass  15.99491

 Molecular mass:   217.03233 amu.
 Principal axes and moments of inertia in atomic units:
                           1         2         3
     Eigenvalues --  2047.335563373.999065040.59484
           X            1.00000  -0.00259   0.00072
           Y            0.00260   0.99998  -0.00637
           Z           -0.00070   0.00638   0.99998
 This molecule is an asymmetric top.
 Rotational symmetry number  1.
 Warning -- assumption of classical behavior for rotation
           may cause significant error
 Rotational temperatures (Kelvin)      0.04231     0.02567     0.01718
 Rotational constants (GHZ):           0.88151     0.53490     0.35804
 Zero-point vibrational energy     475029.0 (Joules/Mol)
                                  113.53464 (Kcal/Mol)
 Vibrational temperatures:    113.00   143.10   158.65   224.13   280.70
          (Kelvin)            322.15   345.65   430.27   485.95   517.41
                              579.97   616.44   637.27   678.26   718.27
                              755.80   793.32   794.15   896.22  1003.64
                             1012.07  1054.45  1057.50  1103.25  1116.39
                             1125.50  1197.56  1284.06  1289.37  1394.80
                             1397.07  1460.56  1469.60  1472.54  1500.31
                             1509.19  1529.85  1555.20  1651.74  1662.48
                             1678.79  1733.15  1739.06  1796.18  1838.24
                             1892.17  1915.39  1940.78  2018.09  2117.77
                             2151.88  2164.46  2194.35  2336.43  2348.07
                             2357.84  2363.45  4625.81  4628.33  4634.04
                             4639.01  4644.03  4646.98  4657.78  4659.16
                             5206.64

 Zero-point correction=                           0.180929 (Hartree/Particle)
 Thermal correction to Energy=                    0.180929
 Thermal correction to Enthalpy=                  0.180929
 Thermal correction to Gibbs Free Energy=         0.180929
 Sum of electronic and zero-point Energies=          -1010.826653
 Sum of electronic and thermal Energies=             -1010.826653
 Sum of electronic and thermal Enthalpies=           -1010.826653
 Sum of electronic and thermal Free Energies=        -1010.826653

                     E (Thermal)             CV                S
                      KCal/Mol        Cal/Mol-Kelvin    Cal/Mol-Kelvin
 Total                  113.535              5.962            -26.249
 Electronic               0.000              0.000              0.000
 Translational            0.000              2.981            -20.596
 Rotational               0.000              2.981             -5.653
 Vibrational            113.535              0.000              0.000

 Optimization completed.
    -- Stationary point found.
 Normal termination of Gaussian 16 at Mon Oct 14 01:32:55 2019.
