 Gaussian 16, Revision A.03,
 Gaussian 16:  ES64L-G16RevA.03 25-Dec-2016

 --------------------------------------------------------------
 #P opt freq b3lyp/6-31g(d) geom=connectivity temperature=0.001
 --------------------------------------------------------------

 -------------------
 Title Card Required
 -------------------
 Symbolic Z-matrix:
 Charge =  0 Multiplicity = 1

 SCF Done:  E(RB3LYP) =  -628.363200276     A.U. after   14 cycles
 SCF Done:  E(RB3LYP) =  -628.395437747     A.U. after   13 cycles
 SCF Done:  E(RB3LYP) =  -628.399333122     A.U. after   12 cycles
 SCF Done:  E(RB3LYP) =  -628.400752972     A.U. after   12 cycles
 SCF Done:  E(RB3LYP) =  -628.400820031     A.U. after   10 cycles
 SCF Done:  E(RB3LYP) =  -628.400823213     A.U. after    8 cycles
 SCF Done:  E(RB3LYP) =  -628.400823393     A.U. after    7 cycles
 Optimization completed.
    -- Stationary point found.
 Normal termination of Gaussian 16 at Mon Oct 14 01:30:20 2019.

 --------------------------------------------------------------------
 #P Geom=AllCheck Guess=TCheck SCRF=Check GenChk RB3LYP/6-31G(d) Freq
 --------------------------------------------------------------------

 Structure from the checkpoint file:  "25.chk"
 -------------------
 Title Card Required
 -------------------
 Charge =  0 Multiplicity = 1

                         Standard orientation:
 ---------------------------------------------------------------------
 Center     Atomic      Atomic             Coordinates (Angstroms)
 Number     Number       Type             X           Y           Z
 ---------------------------------------------------------------------
      1          6           0        1.421009   -0.926025    0.000124
      2         16           0        0.000000    0.194812    0.000016
      3          8           0       -0.000270    0.920657    1.278403
      4          6           0       -1.421026   -0.926003   -0.000329
      5          8           0        0.000291    0.920999   -1.278186
      6          1           0        1.403847   -1.540942    0.902393
      7          1           0        1.403890   -1.540883   -0.902198
      8          1           0        2.307436   -0.287246    0.000064
      9          1           0       -1.403939   -1.541080    0.901847
     10          1           0       -2.307442   -0.287208   -0.000131
     11          1           0       -1.403858   -1.540702   -0.902744
 ---------------------------------------------------------------------

 SCF Done:  E(RB3LYP) =  -628.400823393     A.U. after    1 cycles

 The electronic state is 1-A.
 Alpha  occ. eigenvalues --  -89.09574 -19.13663 -19.13663 -10.23100 -10.23100
 Alpha  occ. eigenvalues --   -8.12501  -6.08902  -6.08858  -6.08850  -1.09610
 Alpha  occ. eigenvalues --   -0.99225  -0.79751  -0.74984  -0.60396  -0.50458
 Alpha  occ. eigenvalues --   -0.48820  -0.48165  -0.45020  -0.44260  -0.42339
 Alpha  occ. eigenvalues --   -0.42149  -0.32486  -0.31090  -0.29436  -0.28948
 Alpha virt. eigenvalues --    0.05928   0.07174   0.08195   0.08553   0.09349
 Alpha virt. eigenvalues --    0.13173   0.14068   0.14753   0.14954   0.15748
 Alpha virt. eigenvalues --    0.36881   0.37156   0.42680   0.43439   0.49705

 Mulliken charges:
               1
     1  C   -0.629940
     2  S    1.073639
     3  O   -0.528206
     4  C   -0.629941
     5  O   -0.528201
     6  H    0.198522
     7  H    0.198511
     8  H    0.224291
     9  H    0.198516
    10  H    0.224291
    11  H    0.198519
 Sum of Mulliken charges =   0.00000

 Dipole moment (field-independent basis, Debye):
    X=             -0.0001    Y=             -4.6068    Z=             -0.0006  Tot=              4.6068
 Quadrupole moment (field-independent basis, Debye-Ang):
   XX=            -31.5311   YY=            -38.1594   ZZ=            -42.8778
   XY=             -0.0000   XZ=              0.0017   YZ=              0.0005

  Exact polarizability:  45.963   0.000  42.737  -0.001  -0.000  42.520
 Approx polarizability:  58.628   0.000  62.853  -0.005  -0.002  72.734

                      1                      2                      3
                      A                      A                      A
 Frequencies --    184.5788               209.9252               264.3684
 Red. masses --      1.0308                 1.0432                 2.6004
 Frc consts  --      0.0207                 0.0271                 0.1071
 IR Inten    --      0.0000                 0.4661                 2.3927

                      4                      5                      6
                      A                      A                      A
 Frequencies --    280.3832               353.3209               435.3524
 Red. masses --      3.9684                 3.1375                 4.6198
 Frc consts  --      0.1838                 0.2308                 0.5159
 IR Inten    --      0.0000                 0.5887                33.3300

                      7                      8                      9
                      A                      A                      A
 Frequencies --    473.8777               661.1395               734.3892
 Red. masses --      8.2994                 4.7904                 3.1647
 Frc consts  --      1.0981                 1.2337                 1.0056
 IR Inten    --     22.9871                12.3425                53.4502

                     10                     11                     12
                      A                      A                      A
 Frequencies --    955.9222               963.2055              1010.9513
 Red. masses --      1.2461                 1.5885                 1.4250
 Frc consts  --      0.6709                 0.8683                 0.8581
 IR Inten    --      0.0000                61.5763                 0.7842

                     13                     14                     15
                      A                      A                      A
 Frequencies --   1021.3088              1138.5691              1328.6381
 Red. masses --      1.6031                 5.9321                12.7991
 Frc consts  --      0.9852                 4.5308                13.3119
 IR Inten    --      0.0735               162.5348               211.7500

                     16                     17                     18
                      A                      A                      A
 Frequencies --   1365.4905              1383.4847              1477.8251
 Red. masses --      1.2133                 1.2043                 1.0517
 Frc consts  --      1.3329                 1.3581                 1.3533
 IR Inten    --      9.4882                11.8685                 0.0000

                     19                     20                     21
                      A                      A                      A
 Frequencies --   1479.6802              1488.5401              1493.0139
 Red. masses --      1.0528                 1.0469                 1.0518
 Frc consts  --      1.3580                 1.3668                 1.3814
 IR Inten    --      7.9594                 2.6610                11.8899

                     22                     23                     24
                      A                      A                      A
 Frequencies --   3080.5348              3083.4083              3182.3823
 Red. masses --      1.0295                 1.0294                 1.1054
 Frc consts  --      5.7560                 5.7665                 6.5961
 IR Inten    --      0.0013                 1.7059                 0.3439

                     25                     26                     27
                      A                      A                      A
 Frequencies --   3183.3790              3183.7309              3187.7991
 Red. masses --      1.1062                 1.1084                 1.1083
 Frc consts  --      6.6046                 6.6192                 6.6355
 IR Inten    --      1.1354                 0.0265                 4.1336

 - Thermochemistry -
 -------------------
 Temperature     0.001 Kelvin.  Pressure   1.00000 Atm.
 Atom     1 has atomic number  6 and mass  12.00000

 Molecular mass:    94.00885 amu.
 Principal axes and moments of inertia in atomic units:
                           1         2         3
     Eigenvalues --   406.16503 438.15085 447.53760
           X            1.00000  -0.00001   0.00016
           Y            0.00001   1.00000   0.00029
           Z           -0.00016  -0.00029   1.00000
 This molecule is an asymmetric top.
 Rotational symmetry number  1.
 Rotational temperatures (Kelvin)      0.21325     0.19768     0.19353
 Rotational constants (GHZ):           4.44337     4.11900     4.03260
 Zero-point vibrational energy     224929.0 (Joules/Mol)
                                   53.75933 (Kcal/Mol)
 Vibrational temperatures:    265.57   302.04   380.37   403.41   508.35
          (Kelvin)            626.38   681.80   951.23  1056.62  1375.36
                             1385.84  1454.53  1469.44  1638.15  1911.61
                             1964.64  1990.53  2126.26  2128.93  2141.68
                             2148.11  4432.20  4436.34  4578.74  4580.17
                             4580.68  4586.53

 Zero-point correction=                           0.085671 (Hartree/Particle)
 Thermal correction to Energy=                    0.085671
 Thermal correction to Enthalpy=                  0.085671
 Thermal correction to Gibbs Free Energy=         0.085671
 Sum of electronic and zero-point Energies=           -628.315152
 Sum of electronic and thermal Energies=              -628.315152
 Sum of electronic and thermal Enthalpies=            -628.315152
 Sum of electronic and thermal Free Energies=         -628.315152

                     E (Thermal)             CV                S
                      KCal/Mol        Cal/Mol-Kelvin    Cal/Mol-Kelvin
 Total                   53.759              5.962            -34.784
 Electronic               0.000              0.000              0.000
 Translational            0.000              2.981            -23.090
 Rotational               0.000              2.981            -11.695
 Vibrational             53.759              0.000              0.000

 Optimization completed.
    -- Stationary point found.
 Normal termination of Gaussian 16 at Mon Oct 14 01:30:27 2019.
