 Gaussian 16, Revision A.03,
 Gaussian 16:  ES64L-G16RevA.03 25-Dec-2016

 --------------------------------------------------------------
 #P opt freq b3lyp/6-31g(d) geom=connectivity temperature=0.001
 --------------------------------------------------------------

 -------------------
 Title Card Required
 -------------------
 Symbolic Z-matrix:
 Charge =  1 Multiplicity = 1

 SCF Done:  E(RB3LYP) =  -628.686148332     A.U. after   16 cycles
 SCF Done:  E(RB3LYP) =  -628.711828402     A.U. after   13 cycles
 SCF Done:  E(RB3LYP) =  -628.714575345     A.U. after   12 cycles
 SCF Done:  E(RB3LYP) =  -628.716367616     A.U. after   12 cycles
 SCF Done:  E(RB3LYP) =  -628.717825718     A.U. after   12 cycles
 SCF Done:  E(RB3LYP) =  -628.719843999     A.U. after   14 cycles
 SCF Done:  E(RB3LYP) =  -628.720966846     A.U. after   12 cycles
 SCF Done:  E(RB3LYP) =  -628.721861728     A.U. after   14 cycles
 SCF Done:  E(RB3LYP) =  -628.721957474     A.U. after   11 cycles
 SCF Done:  E(RB3LYP) =  -628.721986725     A.U. after   10 cycles
 SCF Done:  E(RB3LYP) =  -628.721989947     A.U. after    9 cycles
 SCF Done:  E(RB3LYP) =  -628.721990150     A.U. after    8 cycles
 SCF Done:  E(RB3LYP) =  -628.721990202     A.U. after    7 cycles
 Optimization completed.
    -- Stationary point found.
 Normal termination of Gaussian 16 at Mon Oct 14 01:31:53 2019.

 --------------------------------------------------------------------
 #P Geom=AllCheck Guess=TCheck SCRF=Check GenChk RB3LYP/6-31G(d) Freq
 --------------------------------------------------------------------

 Structure from the checkpoint file:  "25_p.chk"
 -------------------
 Title Card Required
 -------------------
 Charge =  1 Multiplicity = 1

                         Standard orientation:
 ---------------------------------------------------------------------
 Center     Atomic      Atomic             Coordinates (Angstroms)
 Number     Number       Type             X           Y           Z
 ---------------------------------------------------------------------
      1          6           0        1.456746    0.925542   -0.047241
      2         16           0       -0.009787   -0.083146    0.127851
      3          8           0        0.167263   -1.017884   -1.169162
      4          6           0       -1.452161    0.922242   -0.232319
      5          8           0       -0.117948   -0.793951    1.389113
      6          1           0        1.485306    1.348050   -1.054757
      7          1           0        1.411670    1.704758    0.718622
      8          1           0        2.308279    0.261211    0.126129
      9          1           0       -1.343434    1.363462   -1.226037
     10          1           0       -2.320141    0.257710   -0.186314
     11          1           0       -1.523613    1.687188    0.546481
     12          1           0       -0.283501   -1.884049   -1.051980
 ---------------------------------------------------------------------

 SCF Done:  E(RB3LYP) =  -628.721990202     A.U. after    1 cycles

 The electronic state is 1-A.
 Alpha  occ. eigenvalues --  -89.33497 -19.43403 -19.38288 -10.43739 -10.43634
 Alpha  occ. eigenvalues --   -8.36842  -6.33424  -6.33098  -6.32963  -1.34805
 Alpha  occ. eigenvalues --   -1.26187  -1.04287  -0.96043  -0.86652  -0.76712
 Alpha  occ. eigenvalues --   -0.72166  -0.71071  -0.66304  -0.64857  -0.64695
 Alpha  occ. eigenvalues --   -0.63133  -0.62512  -0.57679  -0.54642  -0.52950
 Alpha virt. eigenvalues --   -0.19907  -0.16640  -0.16123  -0.12647  -0.12047
 Alpha virt. eigenvalues --   -0.08305  -0.05567  -0.04937  -0.04525  -0.03516
 Alpha virt. eigenvalues --   -0.01977   0.15630   0.16917   0.20031   0.22645

 Mulliken charges:
               1
     1  C   -0.641122
     2  S    1.106930
     3  O   -0.589160
     4  C   -0.637028
     5  O   -0.395447
     6  H    0.271735
     7  H    0.272759
     8  H    0.292640
     9  H    0.267297
    10  H    0.280395
    11  H    0.274925
    12  H    0.496079
 Sum of Mulliken charges =   1.00000

 Dipole moment (field-independent basis, Debye):
    X=             -0.6275    Y=              1.9925    Z=             -2.0846  Tot=              2.9511
 Quadrupole moment (field-independent basis, Debye-Ang):
   XX=            -25.1523   YY=            -25.3858   ZZ=            -36.6606
   XY=              1.5998   XZ=              1.7574   YZ=              3.3215

  Exact polarizability:  45.324   0.615  43.182  -0.091  -0.594  41.019
 Approx polarizability:  59.220   0.932  61.923  -2.159  -4.271  69.262

                      1                      2                      3
                      A                      A                      A
 Frequencies --    171.8428               194.2712               209.5390
 Red. masses --      1.0537                 1.2748                 1.1925
 Frc consts  --      0.0183                 0.0283                 0.0308
 IR Inten    --      8.3445                53.4569                31.5442

                      4                      5                      6
                      A                      A                      A
 Frequencies --    252.0390               299.4045               333.7874
 Red. masses --      2.8877                 1.9658                 3.0687
 Frc consts  --      0.1081                 0.1038                 0.2014
 IR Inten    --      2.9573                38.6768                 5.6613

                      7                      8                      9
                      A                      A                      A
 Frequencies --    402.3171               411.2194               629.1835
 Red. masses --      3.5481                 5.5087                 4.9384
 Frc consts  --      0.3384                 0.5488                 1.1518
 IR Inten    --     18.5319                55.0710                 0.9979

                     10                     11                     12
                      A                      A                      A
 Frequencies --    743.4031               837.6550               972.5556
 Red. masses --      3.8092                 6.9113                 1.2324
 Frc consts  --      1.2403                 2.8572                 0.6868
 IR Inten    --     20.0374               150.6799                 1.4365

                     13                     14                     15
                      A                      A                      A
 Frequencies --    979.2929              1035.0482              1070.4226
 Red. masses --      1.4441                 1.4384                 1.4128
 Frc consts  --      0.8160                 0.9079                 0.9538
 IR Inten    --     38.5107                 4.1708                61.0844

                     16                     17                     18
                      A                      A                      A
 Frequencies --   1154.5557              1312.2336              1376.2408
 Red. masses --      1.2960                 6.7057                 1.1734
 Frc consts  --      1.0179                 6.8033                 1.3095
 IR Inten    --     48.2486               176.1554                 8.9994

                     19                     20                     21
                      A                      A                      A
 Frequencies --   1397.7901              1450.6262              1454.1911
 Red. masses --      1.1798                 1.0469                 1.0476
 Frc consts  --      1.3582                 1.2980                 1.3052
 IR Inten    --     17.0999                 4.6390                 6.3037

                     22                     23                     24
                      A                      A                      A
 Frequencies --   1464.6656              1472.5760              3075.0501
 Red. masses --      1.0429                 1.0482                 1.0281
 Frc consts  --      1.3182                 1.3392                 5.7281
 IR Inten    --     20.5564                24.1166                23.6893

                     25                     26                     27
                      A                      A                      A
 Frequencies --   3080.0304              3179.6225              3187.1940
 Red. masses --      1.0282                 1.1079                 1.1091
 Frc consts  --      5.7467                 6.5996                 6.6379
 IR Inten    --      9.0893                13.1598                19.3443

                     28                     29                     30
                      A                      A                      A
 Frequencies --   3191.1212              3195.1108              3615.7361
 Red. masses --      1.1100                 1.1104                 1.0667
 Frc consts  --      6.6600                 6.6789                 8.2161
 IR Inten    --      3.1988                21.6025               259.5406

 - Thermochemistry -
 -------------------
 Temperature     0.001 Kelvin.  Pressure   1.00000 Atm.
 Atom     1 has atomic number  6 and mass  12.00000

 Molecular mass:    95.01668 amu.
 Principal axes and moments of inertia in atomic units:
                           1         2         3
     Eigenvalues --   423.88037 460.09354 469.87397
           X            0.99415   0.00035   0.10798
           Y           -0.04130   0.92517   0.37731
           Z           -0.09977  -0.37956   0.91977
 This molecule is an asymmetric top.
 Rotational symmetry number  1.
 Rotational temperatures (Kelvin)      0.20434     0.18825     0.18433
 Rotational constants (GHZ):           4.25767     3.92255     3.84090
 Zero-point vibrational energy     252105.4 (Joules/Mol)
                                   60.25463 (Kcal/Mol)
 Vibrational temperatures:    247.24   279.51   301.48   362.63   430.78
          (Kelvin)            480.25   578.84   591.65   905.25  1069.59
                             1205.20  1399.29  1408.98  1489.20  1540.10
                             1661.15  1888.01  1980.10  2011.11  2087.13
                             2092.26  2107.33  2118.71  4424.31  4431.48
                             4574.77  4585.66  4591.31  4597.05  5202.24

 Zero-point correction=                           0.096022 (Hartree/Particle)
 Thermal correction to Energy=                    0.096022
 Thermal correction to Enthalpy=                  0.096022
 Thermal correction to Gibbs Free Energy=         0.096022
 Sum of electronic and zero-point Energies=           -628.625968
 Sum of electronic and thermal Energies=              -628.625968
 Sum of electronic and thermal Enthalpies=            -628.625968
 Sum of electronic and thermal Free Energies=         -628.625968

                     E (Thermal)             CV                S
                      KCal/Mol        Cal/Mol-Kelvin    Cal/Mol-Kelvin
 Total                   60.255              5.962            -34.613
 Electronic               0.000              0.000              0.000
 Translational            0.000              2.981            -23.058
 Rotational               0.000              2.981            -11.555
 Vibrational             60.255              0.000              0.000

 Optimization completed.
    -- Stationary point found.
 Normal termination of Gaussian 16 at Mon Oct 14 01:32:01 2019.
