 Gaussian 16, Revision A.03,
 Gaussian 16:  ES64L-G16RevA.03 25-Dec-2016

 --------------------------------------------------------------
 #P opt freq b3lyp/6-31g(d) geom=connectivity temperature=0.001
 --------------------------------------------------------------

 -------------------
 Title Card Required
 -------------------
 Symbolic Z-matrix:
 Charge =  0 Multiplicity = 1

 SCF Done:  E(RB3LYP) =  -1571.11813841     A.U. after   16 cycles
 SCF Done:  E(RB3LYP) =  -1571.17663319     A.U. after   13 cycles
 SCF Done:  E(RB3LYP) =  -1571.20870415     A.U. after   13 cycles
 SCF Done:  E(RB3LYP) =  -1571.21386481     A.U. after   13 cycles
 SCF Done:  E(RB3LYP) =  -1571.21556879     A.U. after   12 cycles
 SCF Done:  E(RB3LYP) =  -1571.21651094     A.U. after   13 cycles
 SCF Done:  E(RB3LYP) =  -1571.21774020     A.U. after   12 cycles
 SCF Done:  E(RB3LYP) =  -1571.21965319     A.U. after   13 cycles
 SCF Done:  E(RB3LYP) =  -1571.22142382     A.U. after   14 cycles
 SCF Done:  E(RB3LYP) =  -1571.22304241     A.U. after   14 cycles
 SCF Done:  E(RB3LYP) =  -1571.22443820     A.U. after   11 cycles
 SCF Done:  E(RB3LYP) =  -1571.22449343     A.U. after   12 cycles
 SCF Done:  E(RB3LYP) =  -1571.22450352     A.U. after   11 cycles
 SCF Done:  E(RB3LYP) =  -1571.22451008     A.U. after   10 cycles
 SCF Done:  E(RB3LYP) =  -1571.22451423     A.U. after   10 cycles
 SCF Done:  E(RB3LYP) =  -1571.22451673     A.U. after    9 cycles
 SCF Done:  E(RB3LYP) =  -1571.22451737     A.U. after    9 cycles
 SCF Done:  E(RB3LYP) =  -1571.22451746     A.U. after    7 cycles
 SCF Done:  E(RB3LYP) =  -1571.22451749     A.U. after    7 cycles
 Optimization completed.
    -- Stationary point found.
 Normal termination of Gaussian 16 at Mon Oct 14 01:40:59 2019.

 --------------------------------------------------------------------
 #P Geom=AllCheck Guess=TCheck SCRF=Check GenChk RB3LYP/6-31G(d) Freq
 --------------------------------------------------------------------

 Structure from the checkpoint file:  "26.chk"
 -------------------
 Title Card Required
 -------------------
 Charge =  0 Multiplicity = 1

                         Standard orientation:
 ---------------------------------------------------------------------
 Center     Atomic      Atomic             Coordinates (Angstroms)
 Number     Number       Type             X           Y           Z
 ---------------------------------------------------------------------
      1          8           0        6.808279   -0.575308    1.069738
      2          6           0        5.659261   -0.909541    0.934674
      3          8           0        4.887601   -1.215756    2.004591
      4          6           0        4.985780   -1.076020   -0.440603
      5          6           0        3.512334   -0.795824   -0.459628
      6          6           0        2.964034    0.568764   -0.389708
      7          6           0        3.630134    1.789397   -0.348834
      8          6           0        2.847781    2.943622   -0.361759
      9          9           0        3.465702    4.140340   -0.323049
     10          6           0        1.459154    2.908920   -0.427244
     11          6           0        0.803272    1.672649   -0.456753
     12          6           0        1.548890    0.495296   -0.414646
     13          6           0        2.477225   -1.683537   -0.539458
     14          6           0        2.560170   -3.177040   -0.657460
     15          6           0        1.190870   -0.941655   -0.483544
     16          6           0       -0.005579   -1.580961   -0.521537
     17          6           0       -1.369764   -1.064782   -0.341550
     18          6           0       -2.409111   -1.594606   -1.130772
     19          6           0       -3.723566   -1.167447   -0.970109
     20          6           0       -4.014486   -0.220649    0.013954
     21         16           0       -5.715124    0.332060    0.236559
     22          8           0       -6.433089    0.087175   -1.023699
     23          6           0       -6.383125   -0.810050    1.473272
     24          8           0       -5.674121    1.669370    0.847665
     25          6           0       -3.008859    0.306771    0.826549
     26          6           0       -1.695422   -0.119256    0.649130
     27          1           0        3.980999   -1.402351    1.697201
     28          1           0        5.524651   -0.417782   -1.129079
     29          1           0        5.193535   -2.102888   -0.765186
     30          1           0        4.711924    1.871145   -0.316192
     31          1           0        0.905552    3.841186   -0.455855
     32          1           0       -0.278114    1.655303   -0.522513
     33          1           0        2.069539   -3.681062    0.184923
     34          1           0        2.066844   -3.530881   -1.571953
     35          1           0        3.595683   -3.525863   -0.690529
     36          1           0        0.030581   -2.652801   -0.712524
     37          1           0       -2.174817   -2.334273   -1.891888
     38          1           0       -4.516877   -1.547095   -1.605864
     39          1           0       -7.420286   -0.507492    1.638978
     40          1           0       -6.343178   -1.828750    1.082801
     41          1           0       -5.809286   -0.718021    2.397419
     42          1           0       -3.255755    1.049315    1.578644
     43          1           0       -0.913656    0.268131    1.293918
 ---------------------------------------------------------------------

 SCF Done:  E(RB3LYP) =  -1571.22451749     A.U. after    1 cycles

 The electronic state is 1-A.
 Alpha  occ. eigenvalues --  -89.10125 -24.71185 -19.19726 -19.14390 -19.14382
 Alpha  occ. eigenvalues --  -19.13597 -10.32466 -10.28380 -10.24092 -10.23799
 Alpha  occ. eigenvalues --  -10.23334 -10.23037 -10.22949 -10.22887 -10.22873
 Alpha  occ. eigenvalues --  -10.22523 -10.22512 -10.22424 -10.22316 -10.22249
 Alpha  occ. eigenvalues --  -10.21603 -10.21391 -10.21317 -10.21110 -10.20852
 Alpha  occ. eigenvalues --  -10.20522  -8.13007  -6.09423  -6.09379  -6.09341
 Alpha  occ. eigenvalues --   -1.22394  -1.10220  -1.10205  -1.02061  -0.99957
 Alpha  occ. eigenvalues --   -0.91020  -0.89452  -0.85108  -0.82696  -0.79774
 Alpha  occ. eigenvalues --   -0.78164  -0.77692  -0.77227  -0.76238  -0.74103
 Alpha  occ. eigenvalues --   -0.70264  -0.67651  -0.64461  -0.63832  -0.62383
 Alpha  occ. eigenvalues --   -0.61442  -0.60309  -0.58294  -0.56239  -0.54464
 Alpha  occ. eigenvalues --   -0.53556  -0.51908  -0.51499  -0.50267  -0.49481
 Alpha  occ. eigenvalues --   -0.48852  -0.48218  -0.47653  -0.47151  -0.46682
 Alpha  occ. eigenvalues --   -0.46602  -0.46016  -0.45618  -0.45495  -0.44732
 Alpha  occ. eigenvalues --   -0.44559  -0.43808  -0.43134  -0.43066  -0.41796
 Alpha  occ. eigenvalues --   -0.40779  -0.40242  -0.39886  -0.39767  -0.39076
 Alpha  occ. eigenvalues --   -0.38804  -0.37932  -0.37678  -0.36292  -0.34721
 Alpha  occ. eigenvalues --   -0.33446  -0.33100  -0.31885  -0.31669  -0.31029
 Alpha  occ. eigenvalues --   -0.30276  -0.29473  -0.28584  -0.28395  -0.27300
 Alpha  occ. eigenvalues --   -0.23788  -0.23265
 Alpha virt. eigenvalues --   -0.09775  -0.04062  -0.03638  -0.02307   0.00740
 Alpha virt. eigenvalues --    0.02170   0.05390   0.05786   0.06563   0.08014
 Alpha virt. eigenvalues --    0.08678   0.08781   0.09023   0.09618   0.10142

 Mulliken charges:
               1
     1  O   -0.441530
     2  C    0.603043
     3  O   -0.563096
     4  C   -0.462602
     5  C   -0.019913
     6  C    0.085364
     7  C   -0.284902
     8  C    0.395471
     9  F   -0.292612
    10  C   -0.214371
    11  C   -0.197045
    12  C    0.069133
    13  C    0.064559
    14  C   -0.544701
    15  C    0.114757
    16  C   -0.314359
    17  C    0.165573
    18  C   -0.170956
    19  C   -0.145431
    20  C   -0.157003
    21  S    1.099279
    22  O   -0.536885
    23  C   -0.621695
    24  O   -0.536711
    25  C   -0.147471
    26  C   -0.181429
    27  H    0.411500
    28  H    0.194456
    29  H    0.190118
    30  H    0.163336
    31  H    0.153357
    32  H    0.159692
    33  H    0.170649
    34  H    0.173747
    35  H    0.166722
    36  H    0.149579
    37  H    0.147601
    38  H    0.184229
    39  H    0.221647
    40  H    0.200597
    41  H    0.201114
    42  H    0.184132
    43  H    0.163054
 Sum of Mulliken charges =  -0.00000

 Dipole moment (field-independent basis, Debye):
    X=             -2.2827    Y=             -5.9463    Z=             -0.2669  Tot=              6.3750
 Quadrupole moment (field-independent basis, Debye-Ang):
   XX=           -209.7840   YY=           -150.4479   ZZ=           -157.4706
   XY=             12.5494   XZ=            -28.6593   YZ=              2.7969

  Exact polarizability: 410.491  21.678 242.987  -0.697  19.567 141.131
 Approx polarizability: 580.296  59.582 426.662  12.946  52.073 240.265

                      1                      2                      3
                      A                      A                      A
 Frequencies --     17.6940                22.7382                24.4149
 Red. masses --      7.8982                 7.2767                 7.9781
 Frc consts  --      0.0015                 0.0022                 0.0028
 IR Inten    --      4.3196                 3.2704                 3.9599

                      4                      5                      6
                      A                      A                      A
 Frequencies --     30.8473                45.7224                56.0302
 Red. masses --      6.5640                 7.6532                 4.6128
 Frc consts  --      0.0037                 0.0094                 0.0085
 IR Inten    --      0.3020                 2.0940                 0.8670

                      7                      8                      9
                      A                      A                      A
 Frequencies --     70.9990                97.3730               108.1801
 Red. masses --      5.9031                 4.8864                 4.5617
 Frc consts  --      0.0175                 0.0273                 0.0315
 IR Inten    --      0.0746                 1.5977                 1.2997

                     10                     11                     12
                      A                      A                      A
 Frequencies --    109.3285               152.0112               158.8861
 Red. masses --      4.9560                 1.0476                 5.5001
 Frc consts  --      0.0349                 0.0143                 0.0818
 IR Inten    --      1.6192                 0.1299                 0.1613

                     13                     14                     15
                      A                      A                      A
 Frequencies --    166.7566               187.5999               194.7160
 Red. masses --      3.7145                 4.0457                 2.6374
 Frc consts  --      0.0609                 0.0839                 0.0589
 IR Inten    --      1.8543                 3.3958                 0.6481

                     16                     17                     18
                      A                      A                      A
 Frequencies --    207.7676               230.9066               263.0054
 Red. masses --      1.5257                 4.7842                 5.7123
 Frc consts  --      0.0388                 0.1503                 0.2328
 IR Inten    --      0.9161                 2.2559                 1.5782

                     19                     20                     21
                      A                      A                      A
 Frequencies --    276.8040               292.4737               298.9501
 Red. masses --      4.3786                 3.5040                 4.0363
 Frc consts  --      0.1977                 0.1766                 0.2125
 IR Inten    --      3.2690                 1.1953                 1.0745

                     22                     23                     24
                      A                      A                      A
 Frequencies --    335.0483               352.6005               367.1689
 Red. masses --      4.2282                 6.8938                 4.3976
 Frc consts  --      0.2797                 0.5050                 0.3493
 IR Inten    --      1.6932                 1.6082                 4.3248

                     25                     26                     27
                      A                      A                      A
 Frequencies --    393.2628               411.5797               419.6784
 Red. masses --      5.0070                 5.2085                 3.4053
 Frc consts  --      0.4562                 0.5198                 0.3534
 IR Inten    --      7.2067                 2.5894                 3.1230

                     28                     29                     30
                      A                      A                      A
 Frequencies --    434.6699               444.6903               446.2432
 Red. masses --      5.4037                 4.3260                 4.0551
 Frc consts  --      0.6015                 0.5040                 0.4758
 IR Inten    --      1.7400                 1.6778                 0.4788

                     31                     32                     33
                      A                      A                      A
 Frequencies --    473.5134               495.8837               511.7021
 Red. masses --      5.0085                 5.9631                 3.0904
 Frc consts  --      0.6616                 0.8639                 0.4768
 IR Inten    --     24.1139                13.4480                54.0850

                     34                     35                     36
                      A                      A                      A
 Frequencies --    523.9428               543.0098               550.9726
 Red. masses --      3.9381                 4.4362                 3.3755
 Frc consts  --      0.6369                 0.7707                 0.6037
 IR Inten    --     10.9826                27.8997                35.6423

                     37                     38                     39
                      A                      A                      A
 Frequencies --    590.2471               605.0202               621.9941
 Red. masses --      4.6198                 1.3770                 4.0037
 Frc consts  --      0.9483                 0.2970                 0.9126
 IR Inten    --     49.6539                34.4452                 2.6876

                     40                     41                     42
                      A                      A                      A
 Frequencies --    636.6437               642.3192               667.3576
 Red. masses --      3.9366                 6.0524                 4.5954
 Frc consts  --      0.9401                 1.4712                 1.2058
 IR Inten    --      4.1199                 2.0218                 2.3206

                     43                     44                     45
                      A                      A                      A
 Frequencies --    679.6223               707.3350               714.3653
 Red. masses --      4.7393                 5.0584                 5.2187
 Frc consts  --      1.2897                 1.4911                 1.5691
 IR Inten    --     11.3118                24.3230                 5.8153

                     46                     47                     48
                      A                      A                      A
 Frequencies --    733.1106               756.3081               761.9332
 Red. masses --      4.4136                 5.2873                 5.3102
 Frc consts  --      1.3976                 1.7819                 1.8163
 IR Inten    --     38.7559                58.3937                51.3432

                     49                     50                     51
                      A                      A                      A
 Frequencies --    780.6480               835.1428               848.2191
 Red. masses --      4.6789                 1.5269                 2.0165
 Frc consts  --      1.6800                 0.6274                 0.8548
 IR Inten    --      3.1725                27.0642                 8.2077

                     52                     53                     54
                      A                      A                      A
 Frequencies --    852.5639               863.8501               866.5777
 Red. masses --      2.4656                 3.5814                 1.2675
 Frc consts  --      1.0559                 1.5746                 0.5608
 IR Inten    --      2.3811                12.6659                 0.7316

                     55                     56                     57
                      A                      A                      A
 Frequencies --    877.4540               896.7716               914.6267
 Red. masses --      1.6588                 1.9788                 2.2284
 Frc consts  --      0.7525                 0.9376                 1.0983
 IR Inten    --     32.1154                 6.7046                17.7029

                     58                     59                     60
                      A                      A                      A
 Frequencies --    939.9328               957.4826               982.2331
 Red. masses --      3.0533                 1.3193                 1.3406
 Frc consts  --      1.5893                 0.7126                 0.7620
 IR Inten    --     30.3614                 4.6450                 6.7889

                     61                     62                     63
                      A                      A                      A
 Frequencies --    986.0298               988.1733               992.2170
 Red. masses --      1.3374                 1.4276                 1.4737
 Frc consts  --      0.7661                 0.8213                 0.8548
 IR Inten    --      5.5291                76.8804                 1.3376

                     64                     65                     66
                      A                      A                      A
 Frequencies --   1004.3797              1033.5069              1043.4148
 Red. masses --      2.1355                 3.6374                 2.6392
 Frc consts  --      1.2692                 2.2891                 1.6929
 IR Inten    --      0.8842                 4.0168                 0.8117

                     67                     68                     69
                      A                      A                      A
 Frequencies --   1068.1248              1090.8561              1096.5836
 Red. masses --      1.5031                 4.1460                 2.2997
 Frc consts  --      1.0104                 2.9068                 1.6293
 IR Inten    --      0.4291                44.0566                 4.5610

                     70                     71                     72
                      A                      A                      A
 Frequencies --   1137.7228              1140.0915              1143.8812
 Red. masses --      5.5058                 1.6363                 1.5915
 Frc consts  --      4.1990                 1.2531                 1.2269
 IR Inten    --    253.6354                 9.1457                11.5847

                     73                     74                     75
                      A                      A                      A
 Frequencies --   1172.5389              1181.8184              1214.2774
 Red. masses --      1.9771                 1.8815                 2.4858
 Frc consts  --      1.6015                 1.5483                 2.1595
 IR Inten    --     19.6656                34.2298                48.5416

                     76                     77                     78
                      A                      A                      A
 Frequencies --   1216.5393              1245.4348              1256.8200
 Red. masses --      1.1632                 2.2955                 1.7114
 Frc consts  --      1.0143                 2.0978                 1.5927
 IR Inten    --      0.5966                11.8904                36.8846

                     79                     80                     81
                      A                      A                      A
 Frequencies --   1268.1148              1311.7446              1316.4114
 Red. masses --      2.5503                 2.4230                 4.7027
 Frc consts  --      2.4164                 2.4564                 4.8015
 IR Inten    --      2.4107                68.7976                84.4880

                     82                     83                     84
                      A                      A                      A
 Frequencies --   1321.4194              1336.5507              1342.2603
 Red. masses --      1.5697                 1.9457                 2.3135
 Frc consts  --      1.6149                 2.0479                 2.4558
 IR Inten    --      5.0751                15.9040                21.4636

                     85                     86                     87
                      A                      A                      A
 Frequencies --   1347.8186              1371.1246              1372.4033
 Red. masses --      2.1438                 1.2167                 5.2347
 Frc consts  --      2.2945                 1.3477                 5.8090
 IR Inten    --    283.9648                10.8640                20.2979

                     88                     89                     90
                      A                      A                      A
 Frequencies --   1379.8863              1421.3208              1443.9855
 Red. masses --      2.8944                 2.3067                 1.6997
 Frc consts  --      3.2471                 2.7455                 2.0881
 IR Inten    --     18.3850                 8.8382                 9.3832

                     91                     92                     93
                      A                      A                      A
 Frequencies --   1450.1090              1480.8611              1481.2824
 Red. masses --      1.7476                 3.8177                 1.0588
 Frc consts  --      2.1652                 4.9327                 1.3688
 IR Inten    --     16.1635                 9.9824                 8.4397

                     94                     95                     96
                      A                      A                      A
 Frequencies --   1482.5064              1490.4438              1510.6653
 Red. masses --      1.0506                 1.1458                 1.0463
 Frc consts  --      1.3605                 1.4997                 1.4068
 IR Inten    --      3.1078                13.4877                 9.0279

                     97                     98                     99
                      A                      A                      A
 Frequencies --   1516.1074              1525.3975              1537.6265
 Red. masses --      2.0873                 1.3418                 2.2859
 Frc consts  --      2.8268                 1.8395                 3.1843
 IR Inten    --     95.5440                46.7853                12.3656

                    100                    101                    102
                      A                      A                      A
 Frequencies --   1613.2109              1636.5788              1647.0456
 Red. masses --      6.6380                 6.4922                 5.5590
 Frc consts  --     10.1782                10.2451                 8.8849
 IR Inten    --      2.3546                10.3624                30.4780

                    103                    104                    105
                      A                      A                      A
 Frequencies --   1659.2105              1661.1502              1682.5603
 Red. masses --      7.2345                 6.7601                 7.7006
 Frc consts  --     11.7345                10.9906                12.8445
 IR Inten    --     86.0077                32.9007                19.5030

                    106                    107                    108
                      A                      A                      A
 Frequencies --   1880.6871              3041.2871              3067.8418
 Red. masses --     10.0996                 1.0400                 1.0629
 Frc consts  --     21.0470                 5.6677                 5.8939
 IR Inten    --    462.8418                22.3713                14.2578

                    109                    110                    111
                      A                      A                      A
 Frequencies --   3081.5001              3087.8669              3115.3203
 Red. masses --      1.0291                 1.1005                 1.0998
 Frc consts  --      5.7573                 6.1823                 6.2888
 IR Inten    --      0.5553                12.2313                 4.0128

                    112                    113                    114
                      A                      A                      A
 Frequencies --   3136.1785              3159.0809              3181.4357
 Red. masses --      1.0971                 1.0861                 1.1061
 Frc consts  --      6.3575                 6.3861                 6.5962
 IR Inten    --     23.0908                 6.2578                 0.6551

                    115                    116                    117
                      A                      A                      A
 Frequencies --   3189.4050              3194.2822              3213.6813
 Red. masses --      1.1083                 1.0894                 1.0881
 Frc consts  --      6.6424                 6.5494                 6.6209
 IR Inten    --      1.3553                 7.8000                 2.4368

                    118                    119                    120
                      A                      A                      A
 Frequencies --   3218.9267              3222.9070              3225.2004
 Red. masses --      1.0919                 1.0892                 1.0927
 Frc consts  --      6.6657                 6.6659                 6.6969
 IR Inten    --      2.4719                 2.2614                 0.8892

                    121                    122                    123
                      A                      A                      A
 Frequencies --   3227.3644              3237.8084              3657.0095
 Red. masses --      1.0946                 1.0937                 1.0653
 Frc consts  --      6.7171                 6.7551                 8.3941
 IR Inten    --      2.2171                 2.8876               122.7816

 - Thermochemistry -
 -------------------
 Temperature     0.001 Kelvin.  Pressure   1.00000 Atm.
 Atom     1 has atomic number  8 and mass  15.99491

 Molecular mass:   372.08316 amu.
 Principal axes and moments of inertia in atomic units:
                           1         2         3
     Eigenvalues --  4723.57516********************
           X            0.99997  -0.00383  -0.00610
           Y            0.00392   0.99990   0.01394
           Z            0.00605  -0.01396   0.99988
 This molecule is an asymmetric top.
 Rotational symmetry number  1.
 Warning -- assumption of classical behavior for rotation
           may cause significant error
 Rotational temperatures (Kelvin)      0.01834     0.00366     0.00326
 Rotational constants (GHZ):           0.38207     0.07636     0.06796
 Zero-point vibrational energy     862548.9 (Joules/Mol)
                                  206.15414 (Kcal/Mol)
 Vibrational temperatures:     25.46    32.72    35.13    44.38    65.78
          (Kelvin)             80.62   102.15   140.10   155.65   157.30
                              218.71   228.60   239.93   269.91   280.15
                              298.93   332.22   378.41   398.26   420.80
                              430.12   482.06   507.31   528.27   565.82
                              592.17   603.82   625.39   639.81   642.04
                              681.28   713.47   736.23   753.84   781.27
                              792.73   849.23   870.49   894.91   915.99
                              924.15   960.18   977.82  1017.70  1027.81
                             1054.78  1088.16  1096.25  1123.18  1201.58
                             1220.40  1226.65  1242.89  1246.81  1262.46
                             1290.25  1315.94  1352.35  1377.60  1413.21
                             1418.68  1421.76  1427.58  1445.08  1486.99
                             1501.24  1536.79  1569.50  1577.74  1636.93
                             1640.34  1645.79  1687.02  1700.37  1747.07
                             1750.33  1791.90  1808.28  1824.53  1887.31
                             1894.02  1901.23  1923.00  1931.21  1939.21
                             1972.74  1974.58  1985.35  2044.96  2077.57
                             2086.38  2130.63  2131.23  2133.00  2144.42
                             2173.51  2181.34  2194.71  2212.30  2321.05
                             2354.67  2369.73  2387.23  2390.02  2420.83
                             2705.89  4375.73  4413.94  4433.59  4442.75
                             4482.25  4512.26  4545.21  4577.38  4588.84
                             4595.86  4623.77  4631.32  4637.04  4640.34
                             4643.46  4658.48  5261.62

 Zero-point correction=                           0.328528 (Hartree/Particle)
 Thermal correction to Energy=                    0.328528
 Thermal correction to Enthalpy=                  0.328528
 Thermal correction to Gibbs Free Energy=         0.328528
 Sum of electronic and zero-point Energies=          -1570.895990
 Sum of electronic and thermal Energies=             -1570.895990
 Sum of electronic and thermal Enthalpies=           -1570.895990
 Sum of electronic and thermal Free Energies=        -1570.895990

                     E (Thermal)             CV                S
                      KCal/Mol        Cal/Mol-Kelvin    Cal/Mol-Kelvin
 Total                  206.154              5.962            -20.226
 Electronic               0.000              0.000              0.000
 Translational            0.000              2.981            -18.989
 Rotational               0.000              2.981             -1.237
 Vibrational            206.154              0.000              0.000

 Optimization completed.
    -- Stationary point found.
 Normal termination of Gaussian 16 at Mon Oct 14 01:45:41 2019.
