 Gaussian 16, Revision A.03,
 Gaussian 16:  ES64L-G16RevA.03 25-Dec-2016

 --------------------------------------------------------------
 #P opt freq b3lyp/6-31g(d) geom=connectivity temperature=0.001
 --------------------------------------------------------------

 -------------------
 Title Card Required
 -------------------
 Symbolic Z-matrix:
 Charge =  1 Multiplicity = 1

 SCF Done:  E(RB3LYP) =  -1571.45713249     A.U. after   19 cycles
 SCF Done:  E(RB3LYP) =  -1571.51198632     A.U. after   13 cycles
 SCF Done:  E(RB3LYP) =  -1571.54122493     A.U. after   14 cycles
 SCF Done:  E(RB3LYP) =  -1571.54685375     A.U. after   13 cycles
 SCF Done:  E(RB3LYP) =  -1571.55011650     A.U. after   13 cycles
 SCF Done:  E(RB3LYP) =  -1571.55402318     A.U. after   15 cycles
 SCF Done:  E(RB3LYP) =  -1571.55537013     A.U. after   12 cycles
 SCF Done:  E(RB3LYP) =  -1571.55646196     A.U. after   12 cycles
 SCF Done:  E(RB3LYP) =  -1571.55692633     A.U. after   12 cycles
 SCF Done:  E(RB3LYP) =  -1571.55712711     A.U. after   11 cycles
 SCF Done:  E(RB3LYP) =  -1571.55892283     A.U. after   12 cycles
 SCF Done:  E(RB3LYP) =  -1571.55901686     A.U. after   12 cycles
 SCF Done:  E(RB3LYP) =  -1571.55874103     A.U. after   13 cycles
 SCF Done:  E(RB3LYP) =  -1571.55901790     A.U. after   14 cycles
 SCF Done:  E(RB3LYP) =  -1571.55890640     A.U. after   13 cycles
 SCF Done:  E(RB3LYP) =  -1571.55904112     A.U. after   12 cycles
 SCF Done:  E(RB3LYP) =  -1571.55903685     A.U. after   10 cycles
 SCF Done:  E(RB3LYP) =  -1571.55904430     A.U. after   11 cycles
 SCF Done:  E(RB3LYP) =  -1571.55904469     A.U. after   10 cycles
 Optimization completed.
    -- Stationary point found.
 Normal termination of Gaussian 16 at Mon Oct 14 01:44:49 2019.

 --------------------------------------------------------------------
 #P Geom=AllCheck Guess=TCheck SCRF=Check GenChk RB3LYP/6-31G(d) Freq
 --------------------------------------------------------------------

 Structure from the checkpoint file:  "26_p.chk"
 -------------------
 Title Card Required
 -------------------
 Charge =  1 Multiplicity = 1

                         Standard orientation:
 ---------------------------------------------------------------------
 Center     Atomic      Atomic             Coordinates (Angstroms)
 Number     Number       Type             X           Y           Z
 ---------------------------------------------------------------------
      1          8           0        6.444590    0.076891    1.133705
      2          6           0        5.591746   -0.765140    1.033166
      3          8           0        5.085349   -1.378106    2.131411
      4          6           0        4.988162   -1.215565   -0.309447
      5          6           0        3.523184   -0.904659   -0.406943
      6          6           0        3.012989    0.481651   -0.383387
      7          6           0        3.712662    1.677935   -0.333189
      8          6           0        2.964975    2.857263   -0.433317
      9          9           0        3.611851    4.029036   -0.387080
     10          6           0        1.585305    2.860516   -0.599926
     11          6           0        0.897267    1.640820   -0.634863
     12          6           0        1.600636    0.446449   -0.492776
     13          6           0        2.472732   -1.762844   -0.545010
     14          6           0        2.511193   -3.259041   -0.646598
     15          6           0        1.209718   -0.980395   -0.547296
     16          6           0       -0.004471   -1.600560   -0.606122
     17          6           0       -1.350947   -1.084736   -0.412065
     18          6           0       -2.428743   -1.738084   -1.057036
     19          6           0       -3.741609   -1.337368   -0.871673
     20          6           0       -3.994730   -0.263812    0.000015
     21         16           0       -5.661219    0.195832    0.255117
     22          8           0       -6.569326   -0.408701   -0.708689
     23          6           0       -6.174336   -0.066065    1.953156
     24          8           0       -5.681698    1.815764    0.304639
     25          6           0       -2.956207    0.391109    0.690820
     26          6           0       -1.653632   -0.024531    0.479202
     27          1           0        4.386621   -2.003659    1.875758
     28          1           0        5.544145   -0.685705   -1.089055
     29          1           0        5.174021   -2.287269   -0.442211
     30          1           0        4.790896    1.727318   -0.222642
     31          1           0        1.066784    3.806984   -0.705636
     32          1           0       -0.174711    1.654167   -0.796704
     33          1           0        1.974399   -3.741079    0.180611
     34          1           0        2.047147   -3.608007   -1.578029
     35          1           0        3.535683   -3.639850   -0.640719
     36          1           0        0.017215   -2.667461   -0.818887
     37          1           0       -2.221028   -2.567483   -1.726212
     38          1           0       -4.554901   -1.832369   -1.391655
     39          1           0       -7.175888    0.360957    2.050813
     40          1           0       -6.192169   -1.147204    2.108877
     41          1           0       -5.466806    0.421190    2.626571
     42          1           0       -3.160394    1.208010    1.376626
     43          1           0       -0.851547    0.453010    1.029281
     44          1           0       -5.493305    2.189375   -0.583734
 ---------------------------------------------------------------------

 SCF Done:  E(RB3LYP) =  -1571.55904469     A.U. after    1 cycles

 The electronic state is 1-A.
 Alpha  occ. eigenvalues --  -89.29402 -24.79045 -19.39642 -19.34244 -19.27195
 Alpha  occ. eigenvalues --  -19.21086 -10.40089 -10.39876 -10.39270 -10.36817
 Alpha  occ. eigenvalues --  -10.36735 -10.36456 -10.36104 -10.34530 -10.34361
 Alpha  occ. eigenvalues --  -10.32934 -10.32023 -10.31036 -10.30513 -10.30365
 Alpha  occ. eigenvalues --  -10.29941 -10.29793 -10.29731 -10.28899 -10.28835
 Alpha  occ. eigenvalues --  -10.28826  -8.32650  -6.29242  -6.28929  -6.28767
 Alpha  occ. eigenvalues --   -1.30594  -1.30449  -1.22326  -1.17601  -1.09514
 Alpha  occ. eigenvalues --   -1.03416  -0.99640  -0.98680  -0.94110  -0.93029
 Alpha  occ. eigenvalues --   -0.91146  -0.89252  -0.86019  -0.85315  -0.84393
 Alpha  occ. eigenvalues --   -0.82623  -0.78719  -0.78082  -0.77226  -0.73264
 Alpha  occ. eigenvalues --   -0.72094  -0.70609  -0.69308  -0.69065  -0.67830
 Alpha  occ. eigenvalues --   -0.67039  -0.64819  -0.63114  -0.62821  -0.61317
 Alpha  occ. eigenvalues --   -0.61052  -0.60902  -0.59838  -0.59574  -0.58885
 Alpha  occ. eigenvalues --   -0.58693  -0.58282  -0.57063  -0.55781  -0.55156
 Alpha  occ. eigenvalues --   -0.54547  -0.54265  -0.53716  -0.52998  -0.52541
 Alpha  occ. eigenvalues --   -0.52417  -0.51539  -0.50829  -0.50605  -0.50145
 Alpha  occ. eigenvalues --   -0.49382  -0.48972  -0.48256  -0.47968  -0.47437
 Alpha  occ. eigenvalues --   -0.47054  -0.45429  -0.45143  -0.44030  -0.42884
 Alpha  occ. eigenvalues --   -0.41336  -0.40449  -0.39016  -0.37755  -0.34779
 Alpha  occ. eigenvalues --   -0.32745  -0.31468
 Alpha virt. eigenvalues --   -0.22185  -0.16674  -0.15859  -0.13950  -0.12412
 Alpha virt. eigenvalues --   -0.11209  -0.09968  -0.08178  -0.07129  -0.06797
 Alpha virt. eigenvalues --   -0.05752  -0.05149  -0.02795  -0.02365  -0.01922

 Mulliken charges:
               1
     1  O   -0.422600
     2  C    0.613587
     3  O   -0.549139
     4  C   -0.472371
     5  C    0.047943
     6  C    0.070840
     7  C   -0.276836
     8  C    0.406666
     9  F   -0.272465
    10  C   -0.209921
    11  C   -0.195456
    12  C    0.073299
    13  C    0.058220
    14  C   -0.552691
    15  C    0.115531
    16  C   -0.324989
    17  C    0.192842
    18  C   -0.172509
    19  C   -0.126672
    20  C   -0.192389
    21  S    1.097188
    22  O   -0.423956
    23  C   -0.627020
    24  O   -0.606624
    25  C   -0.139734
    26  C   -0.172994
    27  H    0.409970
    28  H    0.211142
    29  H    0.184873
    30  H    0.198789
    31  H    0.161535
    32  H    0.138668
    33  H    0.173770
    34  H    0.182140
    35  H    0.177370
    36  H    0.164553
    37  H    0.185752
    38  H    0.214696
    39  H    0.276627
    40  H    0.261363
    41  H    0.254109
    42  H    0.189782
    43  H    0.197603
    44  H    0.479508
 Sum of Mulliken charges =   1.00000

 Dipole moment (field-independent basis, Debye):
    X=            -18.1374    Y=             -2.8233    Z=              0.5059  Tot=             18.3628
 Quadrupole moment (field-independent basis, Debye-Ang):
   XX=            -70.7247   YY=           -129.6764   ZZ=           -146.9416
   XY=            -24.3631   XZ=            -31.2135   YZ=             -0.1640

  Exact polarizability: 494.522  26.335 253.372  -7.099  16.781 138.388
 Approx polarizability: 742.395  79.162 455.823   6.908  45.867 226.073

                      1                      2                      3
                      A                      A                      A
 Frequencies --     20.4599                23.7020                25.2855
 Red. masses --      7.9050                 6.6754                 5.9753
 Frc consts  --      0.0019                 0.0022                 0.0023
 IR Inten    --      3.6897                10.5557                 2.0670

                      4                      5                      6
                      A                      A                      A
 Frequencies --     33.4625                46.5778                65.2583
 Red. masses --      5.8822                 6.9280                 4.8949
 Frc consts  --      0.0039                 0.0089                 0.0123
 IR Inten    --      1.6677                 4.4404                 2.2670

                      7                      8                      9
                      A                      A                      A
 Frequencies --     71.9045                95.5180               108.9888
 Red. masses --      5.9073                 4.7454                 4.0067
 Frc consts  --      0.0180                 0.0255                 0.0280
 IR Inten    --      0.7167                 0.2418                 0.6208

                     10                     11                     12
                      A                      A                      A
 Frequencies --    110.7863               160.9502               163.8957
 Red. masses --      5.6055                 4.1461                 3.5660
 Frc consts  --      0.0405                 0.0633                 0.0564
 IR Inten    --      3.7093                 3.0929                 0.7145

                     13                     14                     15
                      A                      A                      A
 Frequencies --    168.0592               174.0683               180.8264
 Red. masses --      1.2297                 3.8527                 1.6070
 Frc consts  --      0.0205                 0.0688                 0.0310
 IR Inten    --      1.9045                 1.4329                12.3134

                     16                     17                     18
                      A                      A                      A
 Frequencies --    200.1589               222.1449               248.9811
 Red. masses --      2.1253                 4.5303                 4.7706
 Frc consts  --      0.0502                 0.1317                 0.1742
 IR Inten    --      2.0056                 0.2506                 0.9257

                     19                     20                     21
                      A                      A                      A
 Frequencies --    268.3166               285.1533               299.0722
 Red. masses --      4.6689                 3.3999                 3.0006
 Frc consts  --      0.1980                 0.1629                 0.1581
 IR Inten    --      5.1543                 9.9151                31.9154

                     22                     23                     24
                      A                      A                      A
 Frequencies --    316.4756               336.1702               363.0515
 Red. masses --      2.4389                 3.6182                 3.4979
 Frc consts  --      0.1439                 0.2409                 0.2716
 IR Inten    --     60.6231                 1.9523                40.8004

                     25                     26                     27
                      A                      A                      A
 Frequencies --    375.8238               389.1151               400.9297
 Red. masses --      3.6156                 5.3426                 3.9406
 Frc consts  --      0.3009                 0.4766                 0.3732
 IR Inten    --     13.6883                 3.0946                26.0264

                     28                     29                     30
                      A                      A                      A
 Frequencies --    416.4362               430.0530               432.8556
 Red. masses --      3.2093                 4.6760                 3.3901
 Frc consts  --      0.3279                 0.5095                 0.3742
 IR Inten    --      4.2395                28.1234                 1.9980

                     31                     32                     33
                      A                      A                      A
 Frequencies --    445.2274               447.0595               471.4719
 Red. masses --      4.0688                 3.6880                 1.4550
 Frc consts  --      0.4752                 0.4343                 0.1906
 IR Inten    --      7.6885                23.2426               160.3366

                     34                     35                     36
                      A                      A                      A
 Frequencies --    482.6822               510.0386               522.2166
 Red. masses --      5.5701                 4.6240                 3.2547
 Frc consts  --      0.7646                 0.7087                 0.5230
 IR Inten    --    105.8806                13.4417                55.0835

                     37                     38                     39
                      A                      A                      A
 Frequencies --    536.5512               555.6138               592.4460
 Red. masses --      4.5084                 3.3738                 4.6112
 Frc consts  --      0.7647                 0.6136                 0.9536
 IR Inten    --     11.5276                 3.7718                31.4224

                     40                     41                     42
                      A                      A                      A
 Frequencies --    626.2009               634.0743               641.7983
 Red. masses --      4.5617                 6.1965                 3.9700
 Frc consts  --      1.0539                 1.4678                 0.9635
 IR Inten    --      2.3056                 1.6130                 6.3034

                     43                     44                     45
                      A                      A                      A
 Frequencies --    669.9967               684.5179               697.8292
 Red. masses --      5.6915                 3.9427                 4.5666
 Frc consts  --      1.5053                 1.0885                 1.3102
 IR Inten    --      8.4846                22.1951                45.9356

                     46                     47                     48
                      A                      A                      A
 Frequencies --    717.3284               735.1220               749.0979
 Red. masses --      4.8779                 4.4314                 5.6227
 Frc consts  --      1.4788                 1.4110                 1.8590
 IR Inten    --      5.1657                 2.8495               133.3941

                     49                     50                     51
                      A                      A                      A
 Frequencies --    758.4959               781.5582               811.9064
 Red. masses --      5.1947                 5.0923                 6.9816
 Frc consts  --      1.7608                 1.8327                 2.7115
 IR Inten    --     10.6004                18.1484               206.9837

                     52                     53                     54
                      A                      A                      A
 Frequencies --    828.8502               843.5510               844.4235
 Red. masses --      1.4990                 1.3932                 1.3646
 Frc consts  --      0.6068                 0.5841                 0.5733
 IR Inten    --     32.5536                 0.8223                27.6322

                     55                     56                     57
                      A                      A                      A
 Frequencies --    851.7735               879.9123               890.4741
 Red. masses --      4.7715                 5.1749                 1.8545
 Frc consts  --      2.0396                 2.3606                 0.8664
 IR Inten    --      9.7636                21.3017                88.9634

                     58                     59                     60
                      A                      A                      A
 Frequencies --    905.7780               911.8116               941.1777
 Red. masses --      1.4280                 2.5436                 2.6209
 Frc consts  --      0.6903                 1.2460                 1.3679
 IR Inten    --     12.8562                45.7214                15.1649

                     61                     62                     63
                      A                      A                      A
 Frequencies --    949.1508               990.5157               994.6781
 Red. masses --      1.3839                 1.5626                 1.4119
 Frc consts  --      0.7346                 0.9033                 0.8230
 IR Inten    --      8.6777                 5.0217                 2.8749

                     64                     65                     66
                      A                      A                      A
 Frequencies --   1001.6201              1005.3196              1016.8134
 Red. masses --      1.7627                 1.4082                 2.1931
 Frc consts  --      1.0419                 0.8386                 1.3360
 IR Inten    --      6.6379                50.0553                 4.7236

                     67                     68                     69
                      A                      A                      A
 Frequencies --   1023.9970              1039.7489              1068.9428
 Red. masses --      1.7905                 2.5920                 1.4981
 Frc consts  --      1.1062                 1.6510                 1.0086
 IR Inten    --    175.5372                11.2419                 1.3003

                     70                     71                     72
                      A                      A                      A
 Frequencies --   1078.1628              1089.5052              1133.7507
 Red. masses --      3.3441                 2.2004                 1.9954
 Frc consts  --      2.2904                 1.5389                 1.5112
 IR Inten    --    463.9510                21.7839                11.2293

                     73                     74                     75
                      A                      A                      A
 Frequencies --   1158.2370              1161.8103              1165.6241
 Red. masses --      1.5184                 1.6163                 1.2543
 Frc consts  --      1.2001                 1.2854                 1.0041
 IR Inten    --     23.3155                47.3148               242.1716

                     76                     77                     78
                      A                      A                      A
 Frequencies --   1173.6554              1218.5331              1227.0455
 Red. masses --      1.9727                 2.4591                 1.2021
 Frc consts  --      1.6010                 2.1513                 1.0664
 IR Inten    --      1.3344                29.0732                50.8496

                     79                     80                     81
                      A                      A                      A
 Frequencies --   1251.6201              1263.7562              1277.1127
 Red. masses --      1.8712                 1.6468                 2.3590
 Frc consts  --      1.7271                 1.5496                 2.2670
 IR Inten    --    110.9779                66.6502                36.5178

                     82                     83                     84
                      A                      A                      A
 Frequencies --   1286.6965              1310.9853              1321.1825
 Red. masses --      7.5165                 1.6530                 1.9270
 Frc consts  --      7.3320                 1.6738                 1.9817
 IR Inten    --    158.6173                79.5212                54.6673

                     85                     86                     87
                      A                      A                      A
 Frequencies --   1327.0279              1342.0105              1353.3661
 Red. masses --      2.1580                 1.7624                 2.4410
 Frc consts  --      2.2391                 1.8701                 2.6342
 IR Inten    --    250.7312                36.5371                14.9911

                     88                     89                     90
                      A                      A                      A
 Frequencies --   1367.6140              1385.9734              1387.4191
 Red. masses --      5.7122                 1.1950                 4.1227
 Frc consts  --      6.2948                 1.3524                 4.6758
 IR Inten    --      8.8669                14.4902                38.4505

                     91                     92                     93
                      A                      A                      A
 Frequencies --   1429.8093              1449.3291              1462.7880
 Red. masses --      1.9346                 1.3651                 1.1292
 Frc consts  --      2.3302                 1.6894                 1.4236
 IR Inten    --     23.1309                 2.9775                25.6372

                     94                     95                     96
                      A                      A                      A
 Frequencies --   1463.2904              1466.5419              1483.4331
 Red. masses --      2.1855                 1.0764                 4.2376
 Frc consts  --      2.7572                 1.3639                 5.4942
 IR Inten    --     66.6055                 3.3608                26.1390

                     97                     98                     99
                      A                      A                      A
 Frequencies --   1498.3751              1511.5810              1516.4499
 Red. masses --      1.1202                 1.0495                 2.0643
 Frc consts  --      1.4818                 1.4129                 2.7969
 IR Inten    --     13.9482                10.3004               125.2584

                    100                    101                    102
                      A                      A                      A
 Frequencies --   1523.9221              1526.7827              1584.5013
 Red. masses --      1.4169                 1.9070                 5.8484
 Frc consts  --      1.9387                 2.6192                 8.6511
 IR Inten    --      6.7490                74.2354                27.6943

                    103                    104                    105
                      A                      A                      A
 Frequencies --   1615.0037              1639.0141              1650.9337
 Red. masses --      5.1055                 6.6426                 6.2975
 Frc consts  --      7.8458                10.5136                10.1129
 IR Inten    --   1042.8126                43.8834                89.8446

                    106                    107                    108
                      A                      A                      A
 Frequencies --   1660.7972              1667.5906              1882.8572
 Red. masses --      7.5762                 6.7149                10.0084
 Frc consts  --     12.3121                11.0019                20.9049
 IR Inten    --     12.7806                41.1142               310.6147

                    109                    110                    111
                      A                      A                      A
 Frequencies --   3041.8526              3073.5153              3086.2029
 Red. masses --      1.0406                 1.0600                 1.0281
 Frc consts  --      5.6729                 5.8997                 5.7693
 IR Inten    --     16.4846                 9.2508                19.1184

                    112                    113                    114
                      A                      A                      A
 Frequencies --   3089.0962              3121.5396              3139.4613
 Red. masses --      1.1007                 1.1037                 1.0966
 Frc consts  --      6.1886                 6.3365                 6.3683
 IR Inten    --     10.6956                 3.2167                17.7078

                    115                    116                    117
                      A                      A                      A
 Frequencies --   3172.9947              3193.4933              3201.8708
 Red. masses --      1.0861                 1.1089                 1.1092
 Frc consts  --      6.4426                 6.6630                 6.6998
 IR Inten    --      1.3168                12.2854                 6.5032

                    118                    119                    120
                      A                      A                      A
 Frequencies --   3209.8595              3213.6354              3217.5513
 Red. masses --      1.0906                 1.0898                 1.0882
 Frc consts  --      6.6203                 6.6313                 6.6379
 IR Inten    --      0.6098                 0.9201                 6.9943

                    121                    122                    123
                      A                      A                      A
 Frequencies --   3230.8346              3234.0291              3234.2055
 Red. masses --      1.0931                 1.0942                 1.0943
 Frc consts  --      6.7228                 6.7425                 6.7440
 IR Inten    --      3.7590                 3.4933                 2.5346

                    124                    125                    126
                      A                      A                      A
 Frequencies --   3242.2889              3630.5507              3720.8823
 Red. masses --      1.0931                 1.0662                 1.0659
 Frc consts  --      6.7706                 8.2805                 8.6945
 IR Inten    --      0.3475               181.4050                19.1913

 - Thermochemistry -
 -------------------
 Temperature     0.001 Kelvin.  Pressure   1.00000 Atm.
 Atom     1 has atomic number  8 and mass  15.99491

 Molecular mass:   373.09098 amu.
 Principal axes and moments of inertia in atomic units:
                           1         2         3
     Eigenvalues --  4798.85365********************
           X            0.99993  -0.01009  -0.00657
           Y            0.01019   0.99983   0.01510
           Z            0.00642  -0.01517   0.99986
 This molecule is an asymmetric top.
 Rotational symmetry number  1.
 Warning -- assumption of classical behavior for rotation
           may cause significant error
 Rotational temperatures (Kelvin)      0.01805     0.00366     0.00326
 Rotational constants (GHZ):           0.37608     0.07629     0.06803
 Zero-point vibrational energy     890393.7 (Joules/Mol)
                                  212.80921 (Kcal/Mol)
 Vibrational temperatures:     29.44    34.10    36.38    48.15    67.02
          (Kelvin)             93.89   103.45   137.43   156.81   159.40
                              231.57   235.81   241.80   250.45   260.17
                              287.98   319.62   358.23   386.05   410.27
                              430.30   455.34   483.67   522.35   540.73
                              559.85   576.85   599.16   618.75   622.78
                              640.58   643.22   678.34   694.47   733.83
                              751.35   771.98   799.40   852.40   900.96
                              912.29   923.40   963.98   984.87  1004.02
                             1032.08  1057.68  1077.78  1091.31  1124.49
                             1168.15  1192.53  1213.68  1214.94  1225.51
                             1266.00  1281.19  1303.21  1311.89  1354.14
                             1365.62  1425.13  1431.12  1441.11  1446.43
                             1462.97  1473.30  1495.97  1537.97  1551.24
                             1567.55  1631.21  1666.44  1671.59  1677.07
                             1688.63  1753.20  1765.44  1800.80  1818.26
                             1837.48  1851.27  1886.22  1900.89  1909.30
                             1930.85  1947.19  1967.69  1994.11  1996.19
                             2057.18  2085.26  2104.63  2105.35  2110.03
                             2134.33  2155.83  2174.83  2181.83  2192.58
                             2196.70  2279.74  2323.63  2358.18  2375.33
                             2389.52  2399.29  2709.01  4376.55  4422.10
                             4440.36  4444.52  4491.20  4516.98  4565.23
                             4594.72  4606.78  4618.27  4623.70  4629.34
                             4648.45  4653.05  4653.30  4664.93  5223.55
                             5353.52

 Zero-point correction=                           0.339133 (Hartree/Particle)
 Thermal correction to Energy=                    0.339133
 Thermal correction to Enthalpy=                  0.339133
 Thermal correction to Gibbs Free Energy=         0.339133
 Sum of electronic and zero-point Energies=          -1571.219912
 Sum of electronic and thermal Energies=             -1571.219912
 Sum of electronic and thermal Enthalpies=           -1571.219912
 Sum of electronic and thermal Free Energies=        -1571.219912

                     E (Thermal)             CV                S
                      KCal/Mol        Cal/Mol-Kelvin    Cal/Mol-Kelvin
 Total                  212.809              5.962            -20.202
 Electronic               0.000              0.000              0.000
 Translational            0.000              2.981            -18.981
 Rotational               0.000              2.981             -1.222
 Vibrational            212.809              0.000              0.000

                           ! Non-Optimized Parameters !
 Normal termination of Gaussian 16 at Mon Oct 14 01:49:33 2019.
