 Gaussian 16, Revision A.03,
 Gaussian 16:  ES64L-G16RevA.03 25-Dec-2016

 --------------------------------------------------------------
 #P opt freq b3lyp/6-31g(d) geom=connectivity temperature=0.001
 --------------------------------------------------------------

 -------------------
 Title Card Required
 -------------------
 Symbolic Z-matrix:
 Charge =  0 Multiplicity = 1

 SCF Done:  E(RB3LYP) =  -820.096752150     A.U. after   16 cycles
 SCF Done:  E(RB3LYP) =  -820.129532673     A.U. after   14 cycles
 SCF Done:  E(RB3LYP) =  -820.134098486     A.U. after   13 cycles
 SCF Done:  E(RB3LYP) =  -820.135439298     A.U. after   12 cycles
 SCF Done:  E(RB3LYP) =  -820.135499029     A.U. after   10 cycles
 SCF Done:  E(RB3LYP) =  -820.135503135     A.U. after    9 cycles
 SCF Done:  E(RB3LYP) =  -820.135503532     A.U. after    8 cycles
 Optimization completed.
    -- Stationary point found.
 Normal termination of Gaussian 16 at Mon Oct 14 01:34:34 2019.

 --------------------------------------------------------------------
 #P Geom=AllCheck Guess=TCheck SCRF=Check GenChk RB3LYP/6-31G(d) Freq
 --------------------------------------------------------------------

 Structure from the checkpoint file:  "27.chk"
 -------------------
 Title Card Required
 -------------------
 Charge =  0 Multiplicity = 1

                         Standard orientation:
 ---------------------------------------------------------------------
 Center     Atomic      Atomic             Coordinates (Angstroms)
 Number     Number       Type             X           Y           Z
 ---------------------------------------------------------------------
      1          8           0       -1.896455   -1.281346   -0.763121
      2         16           0       -1.474866    0.000220   -0.175947
      3          6           0        0.324435    0.000079   -0.077884
      4          6           0        1.004921    1.218744   -0.045189
      5          6           0        2.397538    1.212137    0.038857
      6          6           0        3.090533   -0.000108    0.084504
      7          6           0        2.397396   -1.212280    0.038448
      8          6           0        1.004800   -1.218694   -0.045631
      9          6           0       -1.998711   -0.001580    1.558178
     10          8           0       -1.896374    1.282950   -0.760672
     11          1           0        0.448668    2.148596   -0.106173
     12          1           0        2.941152    2.152367    0.060114
     13          1           0        4.175242   -0.000193    0.147731
     14          1           0        2.940925   -2.152565    0.059383
     15          1           0        0.448484   -2.148487   -0.107046
     16          1           0       -1.624493   -0.903143    2.046997
     17          1           0       -1.623336    0.898206    2.049348
     18          1           0       -3.091625   -0.000916    1.547451
 ---------------------------------------------------------------------

 SCF Done:  E(RB3LYP) =  -820.135503532     A.U. after    1 cycles

 The electronic state is 1-A.
 Alpha  occ. eigenvalues --  -89.09270 -19.13568 -19.13566 -10.23022 -10.22582
 Alpha  occ. eigenvalues --  -10.21747 -10.21745 -10.21520 -10.21320 -10.21313
 Alpha  occ. eigenvalues --   -8.12158  -6.08576  -6.08527  -6.08491  -1.09380
 Alpha  occ. eigenvalues --   -0.99117  -0.87904  -0.79168  -0.76877  -0.76007
 Alpha  occ. eigenvalues --   -0.65945  -0.62828  -0.59046  -0.54164  -0.49771
 Alpha  occ. eigenvalues --   -0.47891  -0.47507  -0.46387  -0.45934  -0.44431
 Alpha  occ. eigenvalues --   -0.43523  -0.42332  -0.38789  -0.38196  -0.36774
 Alpha  occ. eigenvalues --   -0.32347  -0.31060  -0.29461  -0.28830  -0.27554
 Alpha  occ. eigenvalues --   -0.27314
 Alpha virt. eigenvalues --   -0.04077  -0.02333   0.06206   0.07948   0.09405
 Alpha virt. eigenvalues --    0.09764   0.10576   0.11565   0.13235   0.14033
 Alpha virt. eigenvalues --    0.14775   0.15254   0.16521   0.17742   0.19368

 Mulliken charges:
               1
     1  O   -0.539696
     2  S    1.097951
     3  C   -0.158887
     4  C   -0.141899
     5  C   -0.126154
     6  C   -0.119104
     7  C   -0.126153
     8  C   -0.141890
     9  C   -0.621097
    10  O   -0.539673
    11  H    0.179725
    12  H    0.146916
    13  H    0.145295
    14  H    0.146913
    15  H    0.179679
    16  H    0.199782
    17  H    0.199770
    18  H    0.218524
 Sum of Mulliken charges =   0.00000

 Dipole moment (field-independent basis, Debye):
    X=              3.5372    Y=             -0.0036    Z=              3.7292  Tot=              5.1399
 Quadrupole moment (field-independent basis, Debye-Ang):
   XX=            -61.4574   YY=            -64.2618   ZZ=            -66.4354
   XY=              0.0080   XZ=             -7.7828   YZ=             -0.0048

  Exact polarizability: 120.784   0.003  95.533  -0.088   0.006  52.825
 Approx polarizability: 174.887  -0.000 177.145   6.937   0.024  79.186

                      1                      2                      3
                      A                      A                      A
 Frequencies --     40.4295               111.0671               172.3525
 Red. masses --      4.3649                 3.7846                 2.7942
 Frc consts  --      0.0042                 0.0275                 0.0489
 IR Inten    --      1.6259                 4.0577                 0.2857

                      4                      5                      6
                      A                      A                      A
 Frequencies --    208.7705               253.3419               296.8878
 Red. masses --      1.2969                 3.6069                 4.1260
 Frc consts  --      0.0333                 0.1364                 0.2143
 IR Inten    --      0.3686                 0.1496                 0.0013

                      7                      8                      9
                      A                      A                      A
 Frequencies --    301.2432               411.1253               414.5295
 Red. masses --      8.5105                 5.5675                 2.9761
 Frc consts  --      0.4550                 0.5544                 0.3013
 IR Inten    --      2.4720                 0.7211                 0.0139

                     10                     11                     12
                      A                      A                      A
 Frequencies --    431.4265               513.3229               528.6666
 Red. masses --      5.0551                 5.5557                 5.7063
 Frc consts  --      0.5544                 0.8625                 0.9397
 IR Inten    --     15.4846                37.2028                59.2171

                     13                     14                     15
                      A                      A                      A
 Frequencies --    627.7149               693.3739               700.6420
 Red. masses --      6.4303                 6.0918                 2.7520
 Frc consts  --      1.4928                 1.7256                 0.7960
 IR Inten    --      0.0113                 9.7784                17.4913

                     16                     17                     18
                      A                      A                      A
 Frequencies --    741.5119               778.9459               864.9557
 Red. masses --      2.3536                 2.1632                 1.2415
 Frc consts  --      0.7625                 0.7733                 0.5473
 IR Inten    --    110.7210                19.2170                 0.1440

                     19                     20                     21
                      A                      A                      A
 Frequencies --    946.0323               982.1623               985.9571
 Red. masses --      1.3261                 1.3532                 1.3361
 Frc consts  --      0.6993                 0.7691                 0.7652
 IR Inten    --      1.4873                 0.0040                 0.3265

                     22                     23                     24
                      A                      A                      A
 Frequencies --    988.4476              1009.3556              1015.7076
 Red. masses --      1.4525                 1.3398                 5.0108
 Frc consts  --      0.8361                 0.8042                 3.0458
 IR Inten    --     45.7314                 0.0368                 2.5616

                     25                     26                     27
                      A                      A                      A
 Frequencies --   1049.7747              1088.8347              1108.6139
 Red. masses --      3.0413                 3.5255                 1.5572
 Frc consts  --      1.9747                 2.4626                 1.1276
 IR Inten    --      3.2038                42.9380                 5.3473

                     28                     29                     30
                      A                      A                      A
 Frequencies --   1139.2550              1195.9012              1209.1174
 Red. masses --      5.4976                 1.1094                 1.1550
 Frc consts  --      4.2041                 0.9348                 0.9949
 IR Inten    --    189.8512                 0.0204                 1.4394

                     31                     32                     33
                      A                      A                      A
 Frequencies --   1314.5952              1342.4387              1363.4786
 Red. masses --     14.3902                 1.6038                 3.8257
 Frc consts  --     14.6521                 1.7029                 4.1904
 IR Inten    --    162.5438                 0.7194                 0.0219

                     34                     35                     36
                      A                      A                      A
 Frequencies --   1370.5475              1481.5331              1483.2726
 Red. masses --      1.2068                 1.0560                 1.0507
 Frc consts  --      1.3356                 1.3657                 1.3620
 IR Inten    --      9.1938                 9.7815                 3.3039

                     37                     38                     39
                      A                      A                      A
 Frequencies --   1492.5048              1526.1636              1644.5318
 Red. masses --      2.1510                 2.0521                 5.7340
 Frc consts  --      2.8231                 2.8161                 9.1368
 IR Inten    --     14.8259                 3.1080                 0.0032

                     40                     41                     42
                      A                      A                      A
 Frequencies --   1644.9177              3081.5463              3181.5627
 Red. masses --      5.3385                 1.0291                 1.1061
 Frc consts  --      8.5106                 5.7574                 6.5969
 IR Inten    --      1.2564                 0.5502                 0.8402

                     43                     44                     45
                      A                      A                      A
 Frequencies --   3189.2195              3190.9567              3202.2479
 Red. masses --      1.1082                 1.0859                 1.0895
 Frc consts  --      6.6411                 6.5148                 6.5827
 IR Inten    --      1.5295                 0.4121                13.2299

                     46                     47                     48
                      A                      A                      A
 Frequencies --   3211.8407              3224.3849              3225.7951
 Red. masses --      1.0940                 1.0928                 1.0951
 Frc consts  --      6.6491                 6.6937                 6.7141
 IR Inten    --     14.5317                 2.2479                 7.0463

 - Thermochemistry -
 -------------------
 Temperature     0.001 Kelvin.  Pressure   1.00000 Atm.
 Atom     1 has atomic number  8 and mass  15.99491

 Molecular mass:   156.02450 amu.
 Principal axes and moments of inertia in atomic units:
                           1         2         3
     Eigenvalues --   725.727422215.764022516.93392
           X            0.99979   0.00002  -0.02053
           Y           -0.00003   1.00000  -0.00008
           Z            0.02053   0.00008   0.99979
 This molecule is an asymmetric top.
 Rotational symmetry number  1.
 Warning -- assumption of classical behavior for rotation
           may cause significant error
 Rotational temperatures (Kelvin)      0.11935     0.03909     0.03441
 Rotational constants (GHZ):           2.48680     0.81450     0.71704
 Zero-point vibrational energy     364747.4 (Joules/Mol)
                                   87.17672 (Kcal/Mol)
 Vibrational temperatures:     58.17   159.80   247.98   300.37   364.50
          (Kelvin)            427.16   433.42   591.52   596.42   620.73
                              738.56   760.63   903.14   997.61  1008.07
                             1066.87  1120.73  1244.48  1361.13  1413.11
                             1418.57  1422.16  1452.24  1461.38  1510.39
                             1566.59  1595.05  1639.13  1720.64  1739.65
                             1891.41  1931.47  1961.74  1971.91  2131.60
                             2134.10  2147.38  2195.81  2366.11  2366.67
                             4433.66  4577.56  4588.58  4591.07  4607.32
                             4621.12  4639.17  4641.20

 Zero-point correction=                           0.138925 (Hartree/Particle)
 Thermal correction to Energy=                    0.138925
 Thermal correction to Enthalpy=                  0.138925
 Thermal correction to Gibbs Free Energy=         0.138925
 Sum of electronic and zero-point Energies=           -819.996579
 Sum of electronic and thermal Energies=              -819.996579
 Sum of electronic and thermal Enthalpies=            -819.996579
 Sum of electronic and thermal Free Energies=         -819.996579

                     E (Thermal)             CV                S
                      KCal/Mol        Cal/Mol-Kelvin    Cal/Mol-Kelvin
 Total                   87.177              5.962            -29.371
 Electronic               0.000              0.000              0.000
 Translational            0.000              2.981            -21.580
 Rotational               0.000              2.981             -7.791
 Vibrational             87.177              0.000              0.000

                           ! Non-Optimized Parameters !
 Normal termination of Gaussian 16 at Mon Oct 14 01:34:59 2019.
