 Gaussian 16, Revision A.03,
 Gaussian 16:  ES64L-G16RevA.03 25-Dec-2016

 --------------------------------------------------------------
 #P opt freq b3lyp/6-31g(d) geom=connectivity temperature=0.001
 --------------------------------------------------------------

 -------------------
 Title Card Required
 -------------------
 Symbolic Z-matrix:
 Charge =  1 Multiplicity = 1

 SCF Done:  E(RB3LYP) =  -820.434647767     A.U. after   15 cycles
 SCF Done:  E(RB3LYP) =  -820.461482544     A.U. after   13 cycles
 SCF Done:  E(RB3LYP) =  -820.465489783     A.U. after   13 cycles
 SCF Done:  E(RB3LYP) =  -820.466822688     A.U. after   12 cycles
 SCF Done:  E(RB3LYP) =  -820.467079677     A.U. after   12 cycles
 SCF Done:  E(RB3LYP) =  -820.467420826     A.U. after   12 cycles
 SCF Done:  E(RB3LYP) =  -820.467498484     A.U. after   12 cycles
 SCF Done:  E(RB3LYP) =  -820.467782805     A.U. after   12 cycles
 SCF Done:  E(RB3LYP) =  -820.468468206     A.U. after   12 cycles
 SCF Done:  E(RB3LYP) =  -820.468730802     A.U. after   14 cycles
 SCF Done:  E(RB3LYP) =  -820.469417018     A.U. after   12 cycles
 SCF Done:  E(RB3LYP) =  -820.469548822     A.U. after   12 cycles
 SCF Done:  E(RB3LYP) =  -820.469635043     A.U. after   12 cycles
 SCF Done:  E(RB3LYP) =  -820.469649905     A.U. after   10 cycles
 SCF Done:  E(RB3LYP) =  -820.469650939     A.U. after    9 cycles
 SCF Done:  E(RB3LYP) =  -820.469651103     A.U. after    8 cycles
 Optimization completed.
    -- Stationary point found.
 Normal termination of Gaussian 16 at Mon Oct 14 01:36:59 2019.

 --------------------------------------------------------------------
 #P Geom=AllCheck Guess=TCheck SCRF=Check GenChk RB3LYP/6-31G(d) Freq
 --------------------------------------------------------------------

 Structure from the checkpoint file:  "27_p.chk"
 -------------------
 Title Card Required
 -------------------
 Charge =  1 Multiplicity = 1

                         Standard orientation:
 ---------------------------------------------------------------------
 Center     Atomic      Atomic             Coordinates (Angstroms)
 Number     Number       Type             X           Y           Z
 ---------------------------------------------------------------------
      1          8           0        1.901693    0.964225   -1.097180
      2         16           0        1.394340   -0.160781   -0.054590
      3          6           0       -0.367191   -0.040324   -0.030595
      4          6           0       -1.084688   -1.242197    0.034962
      5          6           0       -2.475900   -1.167910    0.078855
      6          6           0       -3.114119    0.075015    0.061452
      7          6           0       -2.374990    1.262557   -0.005373
      8          6           0       -0.985078    1.219970   -0.052226
      9          6           0        2.113224    0.561063    1.419011
     10          8           0        1.859499   -1.512927   -0.319384
     11          1           0       -0.571328   -2.197832    0.040687
     12          1           0       -3.057928   -2.082500    0.124773
     13          1           0       -4.198176    0.121758    0.096782
     14          1           0       -2.882032    2.221706   -0.026543
     15          1           0       -0.407137    2.136323   -0.121743
     16          1           0        1.743121    1.580707    1.542101
     17          1           0        1.815126   -0.075543    2.255593
     18          1           0        3.197556    0.543697    1.279693
     19          1           0        1.694279    0.704750   -2.021917
 ---------------------------------------------------------------------

 SCF Done:  E(RB3LYP) =  -820.469651103     A.U. after    1 cycles

 The electronic state is 1-A.
 Alpha  occ. eigenvalues --  -89.30738 -19.41019 -19.35619 -10.41254 -10.40918
 Alpha  occ. eigenvalues --  -10.38053 -10.37709 -10.36104 -10.35985 -10.35769
 Alpha  occ. eigenvalues --   -8.34012  -6.30603  -6.30284  -6.30127  -1.32053
 Alpha  occ. eigenvalues --   -1.23711  -1.04572  -0.99815  -0.93399  -0.92283
 Alpha  occ. eigenvalues --   -0.85985  -0.79958  -0.78014  -0.73556  -0.70368
 Alpha  occ. eigenvalues --   -0.68737  -0.65864  -0.63400  -0.62171  -0.62080
 Alpha  occ. eigenvalues --   -0.60876  -0.60660  -0.59720  -0.56321  -0.54216
 Alpha  occ. eigenvalues --   -0.52972  -0.52114  -0.51809  -0.50021  -0.43453
 Alpha  occ. eigenvalues --   -0.42398
 Alpha virt. eigenvalues --   -0.22022  -0.17270  -0.15576  -0.13752  -0.11741
 Alpha virt. eigenvalues --   -0.09472  -0.08492  -0.06036  -0.03533  -0.02672
 Alpha virt. eigenvalues --   -0.01787  -0.00744   0.00549   0.01778   0.05050

 Mulliken charges:
               1
     1  O   -0.602981
     2  S    1.109856
     3  C   -0.185430
     4  C   -0.120788
     5  C   -0.121350
     6  C   -0.099152
     7  C   -0.119013
     8  C   -0.129783
     9  C   -0.628455
    10  O   -0.416781
    11  H    0.220693
    12  H    0.202353
    13  H    0.202283
    14  H    0.199882
    15  H    0.196878
    16  H    0.258788
    17  H    0.266214
    18  H    0.281551
    19  H    0.485235
 Sum of Mulliken charges =   1.00000

 Dipole moment (field-independent basis, Debye):
    X=              0.1127    Y=              2.1991    Z=              0.6647  Tot=              2.3002
 Quadrupole moment (field-independent basis, Debye-Ang):
   XX=            -37.6416   YY=            -56.2002   ZZ=            -54.0631
   XY=              4.7687   XZ=              2.4537   YZ=             -0.7326

  Exact polarizability: 125.501   0.830  94.244   0.738  -0.489  53.335
 Approx polarizability: 187.226  -1.996 175.220  -3.575  -1.649  78.396

                      1                      2                      3
                      A                      A                      A
 Frequencies --     51.2353               107.4497               164.1283
 Red. masses --      4.1635                 3.4520                 2.3637
 Frc consts  --      0.0064                 0.0235                 0.0375
 IR Inten    --      1.2608                 0.0625                 4.3519

                      4                      5                      6
                      A                      A                      A
 Frequencies --    190.9088               238.4640               283.0298
 Red. masses --      1.3905                 3.0449                 3.3921
 Frc consts  --      0.0299                 0.1020                 0.1601
 IR Inten    --      0.8603                 8.3870                 8.5776

                      7                      8                      9
                      A                      A                      A
 Frequencies --    305.7600               341.5114               380.3522
 Red. masses --      3.7605                 1.7214                 4.5608
 Frc consts  --      0.2071                 0.1183                 0.3887
 IR Inten    --      5.8673                81.8279                11.2121

                     10                     11                     12
                      A                      A                      A
 Frequencies --    405.0217               418.7912               473.6161
 Red. masses --      3.0331                 3.6105                 4.7428
 Frc consts  --      0.2931                 0.3731                 0.6268
 IR Inten    --      1.7708                25.8097                53.1125

                     13                     14                     15
                      A                      A                      A
 Frequencies --    499.1082               619.0319               677.5326
 Red. masses --      5.5988                 6.4676                 6.2167
 Frc consts  --      0.8217                 1.4602                 1.6814
 IR Inten    --     88.4632                 0.6073                 5.5335

                     16                     17                     18
                      A                      A                      A
 Frequencies --    680.1258               746.6101               767.2172
 Red. masses --      2.9746                 2.6383                 1.7520
 Frc consts  --      0.8107                 0.8665                 0.6076
 IR Inten    --     11.1162                74.3631                25.1110

                     19                     20                     21
                      A                      A                      A
 Frequencies --    825.7355               851.2516               955.0285
 Red. masses --      6.5896                 1.2985                 1.2701
 Frc consts  --      2.6472                 0.5544                 0.6825
 IR Inten    --    171.8989                 4.6860                 0.7762

                     22                     23                     24
                      A                      A                      A
 Frequencies --    996.0086              1005.2331              1008.8547
 Red. masses --      1.3554                 1.8805                 2.3305
 Frc consts  --      0.7922                 1.1196                 1.3975
 IR Inten    --      0.4026                26.4327                 2.6686

                     25                     26                     27
                      A                      A                      A
 Frequencies --   1025.3882              1036.7237              1044.1229
 Red. masses --      1.5967                 1.3369                 3.2639
 Frc consts  --      0.9891                 0.8466                 2.0965
 IR Inten    --     27.4101                 0.1120                17.9095

                     28                     29                     30
                      A                      A                      A
 Frequencies --   1079.5885              1122.1518              1166.3806
 Red. masses --      2.5798                 1.5897                 1.2286
 Frc consts  --      1.7716                 1.1794                 0.9848
 IR Inten    --     83.0994                 3.8678               140.4795

                     31                     32                     33
                      A                      A                      A
 Frequencies --   1208.7413              1219.6703              1291.8251
 Red. masses --      1.1019                 1.1631                 8.6462
 Frc consts  --      0.9486                 1.0194                 8.5013
 IR Inten    --      0.1480                 0.8342               143.1581

                     34                     35                     36
                      A                      A                      A
 Frequencies --   1352.9232              1374.7343              1386.0240
 Red. masses --      1.6437                 3.5649                 1.1856
 Frc consts  --      1.7726                 3.9695                 1.3419
 IR Inten    --      1.1450                 7.6327                13.0547

                     37                     38                     39
                      A                      A                      A
 Frequencies --   1460.8050              1464.0496              1494.5421
 Red. masses --      1.0440                 1.0508                 2.1632
 Frc consts  --      1.3126                 1.3270                 2.8468
 IR Inten    --      9.9967                16.8740                27.0159

                     40                     41                     42
                      A                      A                      A
 Frequencies --   1516.1234              1625.7746              1633.7399
 Red. masses --      1.9105                 5.0073                 5.2973
 Frc consts  --      2.5874                 7.7978                 8.3305
 IR Inten    --      2.2133                15.8145                 0.6384

                     43                     44                     45
                      A                      A                      A
 Frequencies --   3084.8363              3192.2435              3201.4086
 Red. masses --      1.0280                 1.1090                 1.1095
 Frc consts  --      5.7638                 6.6582                 6.6997
 IR Inten    --     16.0546                14.2194                 7.5417

                     46                     47                     48
                      A                      A                      A
 Frequencies --   3213.7232              3219.8450              3227.8509
 Red. masses --      1.0888                 1.0900                 1.0917
 Frc consts  --      6.6256                 6.6578                 6.7015
 IR Inten    --      0.2862                 0.5153                 1.1998

                     49                     50                     51
                      A                      A                      A
 Frequencies --   3233.8476              3239.0198              3624.1183
 Red. masses --      1.0954                 1.0975                 1.0663
 Frc consts  --      6.7496                 6.7842                 8.2517
 IR Inten    --      1.1465                 2.4774               210.7216

 - Thermochemistry -
 -------------------
 Temperature     0.001 Kelvin.  Pressure   1.00000 Atm.
 Atom     1 has atomic number  8 and mass  15.99491

 Molecular mass:   157.03233 amu.
 Principal axes and moments of inertia in atomic units:
                           1         2         3
     Eigenvalues --   744.882892243.149052570.21060
           X            0.99984   0.01243   0.01311
           Y           -0.01258   0.99986   0.01091
           Z           -0.01297  -0.01107   0.99985
 This molecule is an asymmetric top.
 Rotational symmetry number  1.
 Warning -- assumption of classical behavior for rotation
           may cause significant error
 Rotational temperatures (Kelvin)      0.11628     0.03861     0.03370
 Rotational constants (GHZ):           2.42285     0.80456     0.70218
 Zero-point vibrational energy     393165.9 (Joules/Mol)
                                   93.96891 (Kcal/Mol)
 Vibrational temperatures:     73.72   154.60   236.14   274.68   343.10
          (Kelvin)            407.22   439.92   491.36   547.24   582.74
                              602.55   681.43   718.11   890.65   974.82
                              978.55  1074.21  1103.85  1188.05  1224.76
                             1374.07  1433.03  1446.31  1451.52  1475.30
                             1491.61  1502.26  1553.29  1614.53  1678.16
                             1739.11  1754.83  1858.65  1946.55  1977.94
                             1994.18  2101.77  2106.44  2150.31  2181.36
                             2339.13  2350.59  4438.39  4592.93  4606.11
                             4623.83  4632.64  4644.16  4652.79  4660.23
                             5214.30

 Zero-point correction=                           0.149749 (Hartree/Particle)
 Thermal correction to Energy=                    0.149749
 Thermal correction to Enthalpy=                  0.149749
 Thermal correction to Gibbs Free Energy=         0.149749
 Sum of electronic and zero-point Energies=           -820.319902
 Sum of electronic and thermal Energies=              -820.319902
 Sum of electronic and thermal Enthalpies=            -820.319902
 Sum of electronic and thermal Free Energies=         -820.319902

                     E (Thermal)             CV                S
                      KCal/Mol        Cal/Mol-Kelvin    Cal/Mol-Kelvin
 Total                   93.969              5.962            -29.293
 Electronic               0.000              0.000              0.000
 Translational            0.000              2.981            -21.560
 Rotational               0.000              2.981             -7.733
 Vibrational             93.969              0.000              0.000

 Optimization completed.
    -- Stationary point found.
 Normal termination of Gaussian 16 at Mon Oct 14 01:37:27 2019.
