 Gaussian 16, Revision A.03,
 Gaussian 16:  ES64L-G16RevA.03 25-Dec-2016

 --------------------------------------------------------------
 #P opt freq b3lyp/6-31g(d) geom=connectivity temperature=0.001
 --------------------------------------------------------------

 -------------------
 Title Card Required
 -------------------
 Symbolic Z-matrix:
 Charge =  0 Multiplicity = 1

 SCF Done:  E(RB3LYP) =  -704.329222656     A.U. after   18 cycles
 SCF Done:  E(RB3LYP) =  -704.407603561     A.U. after   15 cycles
 SCF Done:  E(RB3LYP) =  -704.473625837     A.U. after   15 cycles
 SCF Done:  E(RB3LYP) =  -704.515651848     A.U. after   14 cycles
 SCF Done:  E(RB3LYP) =  -704.540194860     A.U. after   14 cycles
 SCF Done:  E(RB3LYP) =  -704.543144535     A.U. after   13 cycles
 SCF Done:  E(RB3LYP) =  -704.544648513     A.U. after   13 cycles
 SCF Done:  E(RB3LYP) =  -704.547415384     A.U. after   14 cycles
 SCF Done:  E(RB3LYP) =  -704.548367099     A.U. after   13 cycles
 SCF Done:  E(RB3LYP) =  -704.548837434     A.U. after   13 cycles
 SCF Done:  E(RB3LYP) =  -704.548889663     A.U. after   11 cycles
 SCF Done:  E(RB3LYP) =  -704.548916417     A.U. after   11 cycles
 SCF Done:  E(RB3LYP) =  -704.548918968     A.U. after    9 cycles
 SCF Done:  E(RB3LYP) =  -704.548919384     A.U. after    8 cycles
 Optimization completed.
    -- Stationary point found.
 Normal termination of Gaussian 16 at Mon Oct 14 01:38:51 2019.

 --------------------------------------------------------------------
 #P Geom=AllCheck Guess=TCheck SCRF=Check GenChk RB3LYP/6-31G(d) Freq
 --------------------------------------------------------------------

 Structure from the checkpoint file:  "28.chk"
 -------------------
 Title Card Required
 -------------------
 Charge =  0 Multiplicity = 1

                         Standard orientation:
 ---------------------------------------------------------------------
 Center     Atomic      Atomic             Coordinates (Angstroms)
 Number     Number       Type             X           Y           Z
 ---------------------------------------------------------------------
      1          6           0        2.445755    0.792482    0.004404
      2          6           0        1.262034    0.725149    0.605972
      3         16           0        0.000059   -0.390598   -0.000023
      4          8           0        0.542685   -1.110112   -1.163228
      5          6           0       -1.262142    0.725263   -0.605764
      6          6           0       -2.445909    0.792347   -0.004263
      7          8           0       -0.542572   -1.110558    1.162915
      8          1           0        3.236082    1.431346    0.389063
      9          1           0        2.653611    0.198346   -0.880958
     10          1           0        0.983034    1.271848    1.502238
     11          1           0       -0.983119    1.272332   -1.501797
     12          1           0       -3.236164    1.431306   -0.388920
     13          1           0       -2.653723    0.198304    0.881163
 ---------------------------------------------------------------------

 SCF Done:  E(RB3LYP) =  -704.548919384     A.U. after    1 cycles

 The electronic state is 1-A.
 Alpha  occ. eigenvalues --  -89.09560 -19.13962 -19.13961 -10.23370 -10.23369
 Alpha  occ. eigenvalues --  -10.22609 -10.22608  -8.12453  -6.08876  -6.08823
 Alpha  occ. eigenvalues --   -6.08783  -1.09711  -0.99447  -0.82120  -0.80237
 Alpha  occ. eigenvalues --   -0.69657  -0.61980  -0.56434  -0.53053  -0.49208
 Alpha  occ. eigenvalues --   -0.47857  -0.47718  -0.43285  -0.41306  -0.41092
 Alpha  occ. eigenvalues --   -0.33239  -0.32503  -0.31050  -0.30860  -0.29570
 Alpha  occ. eigenvalues --   -0.28470
 Alpha virt. eigenvalues --   -0.05475  -0.01235   0.07691   0.07895   0.09128
 Alpha virt. eigenvalues --    0.11227   0.12358   0.12373   0.14342   0.15401
 Alpha virt. eigenvalues --    0.20881   0.22897   0.28100   0.30266   0.35189

 Mulliken charges:
               1
     1  C   -0.293550
     2  C   -0.302291
     3  S    1.109903
     4  O   -0.534500
     5  C   -0.302298
     6  C   -0.293543
     7  O   -0.534494
     8  H    0.173443
     9  H    0.207122
    10  H    0.194845
    11  H    0.194825
    12  H    0.173434
    13  H    0.207104
 Sum of Mulliken charges =  -0.00000

 Dipole moment (field-independent basis, Debye):
    X=              0.0004    Y=              4.6022    Z=              0.0009  Tot=              4.6022
 Quadrupole moment (field-independent basis, Debye-Ang):
   XX=            -37.7092   YY=            -50.6292   ZZ=            -50.4157
   XY=             -0.0003   XZ=              1.8462   YZ=              0.0002

  Exact polarizability:  91.844   0.002  47.221  -9.464  -0.002  51.265
 Approx polarizability: 132.414   0.006  71.033 -28.874  -0.006  89.052

                      1                      2                      3
                      A                      A                      A
 Frequencies --     89.2850               107.0399               232.7768
 Red. masses --      3.4370                 2.4810                 2.0735
 Frc consts  --      0.0161                 0.0167                 0.0662
 IR Inten    --      1.5377                 1.5488                 1.3324

                      4                      5                      6
                      A                      A                      A
 Frequencies --    246.9195               247.0897               375.0255
 Red. masses --      3.9661                 4.7190                 4.0685
 Frc consts  --      0.1425                 0.1697                 0.3371
 IR Inten    --      1.9033                 0.1024                 1.0119

                      7                      8                      9
                      A                      A                      A
 Frequencies --    380.4891               467.5263               555.1421
 Red. masses --      3.0580                 6.8127                 3.4897
 Frc consts  --      0.2608                 0.8774                 0.6336
 IR Inten    --     12.4877                17.3339                17.8286

                     10                     11                     12
                      A                      A                      A
 Frequencies --    592.0332               631.1372               714.9903
 Red. masses --      1.8992                 2.0608                 2.8773
 Frc consts  --      0.3922                 0.4837                 0.8666
 IR Inten    --     12.7738                 1.1622                47.4286

                     13                     14                     15
                      A                      A                      A
 Frequencies --    769.8941               984.0110               985.0263
 Red. masses --      4.6393                 1.2146                 1.2322
 Frc consts  --      1.6202                 0.6929                 0.7044
 IR Inten    --    190.0169                 0.3934                 0.0378

                     16                     17                     18
                      A                      A                      A
 Frequencies --   1010.4746              1012.5979              1023.3627
 Red. masses --      1.1705                 1.1544                 1.3210
 Frc consts  --      0.7041                 0.6974                 0.8151
 IR Inten    --     43.0241                49.7916                 3.0344

                     19                     20                     21
                      A                      A                      A
 Frequencies --   1033.1199              1110.6372              1272.6534
 Red. masses --      1.3244                10.1283                 1.7662
 Frc consts  --      0.8329                 7.3609                 1.6854
 IR Inten    --      0.2889               143.6998                43.4164

                     22                     23                     24
                      A                      A                      A
 Frequencies --   1288.0992              1321.3616              1430.7235
 Red. masses --      1.3183                 4.0163                 1.1965
 Frc consts  --      1.2887                 4.1316                 1.4430
 IR Inten    --      0.0786               116.6818                 0.4731

                     25                     26                     27
                      A                      A                      A
 Frequencies --   1431.0395              1688.9897              1692.8311
 Red. masses --      1.1948                 4.3226                 4.3292
 Frc consts  --      1.4416                 7.2653                 7.3094
 IR Inten    --     30.7244                 0.0666                 4.4695

                     28                     29                     30
                      A                      A                      A
 Frequencies --   3172.7867              3172.9031              3217.1746
 Red. masses --      1.0574                 1.0573                 1.0967
 Frc consts  --      6.2715                 6.2715                 6.6881
 IR Inten    --      5.2258                 2.7695                 1.1972

                     31                     32                     33
                      A                      A                      A
 Frequencies --   3217.7004              3264.1916              3264.2567
 Red. masses --      1.0967                 1.1171                 1.1171
 Frc consts  --      6.6899                 7.0129                 7.0133
 IR Inten    --      0.6156                 1.9053                 0.2949

 - Thermochemistry -
 -------------------
 Temperature     0.001 Kelvin.  Pressure   1.00000 Atm.
 Atom     1 has atomic number  6 and mass  12.00000

 Molecular mass:   118.00885 amu.
 Principal axes and moments of inertia in atomic units:
                           1         2         3
     Eigenvalues --   491.727901024.789891098.72086
           X            0.99999  -0.00000   0.00460
           Y            0.00000   1.00000   0.00000
           Z           -0.00460  -0.00000   0.99999
 This molecule is an asymmetric top.
 Rotational symmetry number  1.
 Warning -- assumption of classical behavior for rotation
           may cause significant error
 Rotational temperatures (Kelvin)      0.17614     0.08452     0.07883
 Rotational constants (GHZ):           3.67020     1.76108     1.64258
 Zero-point vibrational energy     251235.5 (Joules/Mol)
                                   60.04672 (Kcal/Mol)
 Vibrational temperatures:    128.46   154.01   334.91   355.26   355.51
          (Kelvin)            539.58   547.44   672.67   798.73   851.80
                              908.07  1028.71  1107.71  1415.77  1417.23
                             1453.85  1456.90  1472.39  1486.43  1597.96
                             1831.06  1853.29  1901.14  2058.49  2058.95
                             2430.08  2435.61  4564.93  4565.10  4628.80
                             4629.55  4696.44  4696.54

 Zero-point correction=                           0.095691 (Hartree/Particle)
 Thermal correction to Energy=                    0.095691
 Thermal correction to Enthalpy=                  0.095691
 Thermal correction to Gibbs Free Energy=         0.095691
 Sum of electronic and zero-point Energies=           -704.453229
 Sum of electronic and thermal Energies=              -704.453229
 Sum of electronic and thermal Enthalpies=            -704.453229
 Sum of electronic and thermal Free Energies=         -704.453229

                     E (Thermal)             CV                S
                      KCal/Mol        Cal/Mol-Kelvin    Cal/Mol-Kelvin
 Total                   60.047              5.962            -32.180
 Electronic               0.000              0.000              0.000
 Translational            0.000              2.981            -22.412
 Rotational               0.000              2.981             -9.768
 Vibrational             60.047              0.000              0.000

 Optimization completed.
    -- Stationary point found.
 Normal termination of Gaussian 16 at Mon Oct 14 01:39:03 2019.
