 Gaussian 16, Revision A.03,
 Gaussian 16:  ES64L-G16RevA.03 25-Dec-2016

 --------------------------------------------------------------
 #P opt freq b3lyp/6-31g(d) geom=connectivity temperature=0.001
 --------------------------------------------------------------

 -------------------
 Title Card Required
 -------------------
 Symbolic Z-matrix:
 Charge =  1 Multiplicity = 1

 SCF Done:  E(RB3LYP) =  -704.663133007     A.U. after   17 cycles
 SCF Done:  E(RB3LYP) =  -704.735924975     A.U. after   14 cycles
 SCF Done:  E(RB3LYP) =  -704.789478323     A.U. after   14 cycles
 SCF Done:  E(RB3LYP) =  -704.831778981     A.U. after   14 cycles
 SCF Done:  E(RB3LYP) =  -704.860588486     A.U. after   14 cycles
 SCF Done:  E(RB3LYP) =  -704.864320875     A.U. after   13 cycles
 SCF Done:  E(RB3LYP) =  -704.866381209     A.U. after   13 cycles
 SCF Done:  E(RB3LYP) =  -704.869729753     A.U. after   14 cycles
 SCF Done:  E(RB3LYP) =  -704.871241714     A.U. after   13 cycles
 SCF Done:  E(RB3LYP) =  -704.872392491     A.U. after   13 cycles
 SCF Done:  E(RB3LYP) =  -704.872753582     A.U. after   12 cycles
 SCF Done:  E(RB3LYP) =  -704.873817379     A.U. after   15 cycles
 SCF Done:  E(RB3LYP) =  -704.874264905     A.U. after   12 cycles
 SCF Done:  E(RB3LYP) =  -704.874537820     A.U. after   12 cycles
 SCF Done:  E(RB3LYP) =  -704.874556251     A.U. after   11 cycles
 SCF Done:  E(RB3LYP) =  -704.874561114     A.U. after   10 cycles
 SCF Done:  E(RB3LYP) =  -704.874561607     A.U. after    8 cycles
 SCF Done:  E(RB3LYP) =  -704.874561692     A.U. after    8 cycles
 Optimization completed.
    -- Stationary point found.
 Normal termination of Gaussian 16 at Mon Oct 14 01:39:11 2019.

 --------------------------------------------------------------------
 #P Geom=AllCheck Guess=TCheck SCRF=Check GenChk RB3LYP/6-31G(d) Freq
 --------------------------------------------------------------------

 Structure from the checkpoint file:  "28_p.chk"
 -------------------
 Title Card Required
 -------------------
 Charge =  1 Multiplicity = 1

                         Standard orientation:
 ---------------------------------------------------------------------
 Center     Atomic      Atomic             Coordinates (Angstroms)
 Number     Number       Type             X           Y           Z
 ---------------------------------------------------------------------
      1          6           0       -2.458618    0.812191    0.035632
      2          6           0       -1.235866    0.860083   -0.491882
      3         16           0       -0.045302   -0.309065    0.083136
      4          8           0       -0.580218   -1.289756    1.013614
      5          6           0        1.363175    0.532548    0.757386
      6          6           0        2.432180    0.839980    0.023664
      7          8           0        0.454441   -0.889237   -1.336522
      8          1           0       -3.215810    1.517464   -0.295676
      9          1           0       -2.740449    0.083280    0.791015
     10          1           0       -0.869009    1.550081   -1.245980
     11          1           0        1.227993    0.742431    1.815473
     12          1           0        3.271794    1.347708    0.491094
     13          1           0        2.516854    0.606614   -1.033624
     14          1           0        0.934447   -1.739401   -1.218011
 ---------------------------------------------------------------------

 SCF Done:  E(RB3LYP) =  -704.874561692     A.U. after    1 cycles

 The electronic state is 1-A.
 Alpha  occ. eigenvalues --  -89.31915 -19.42200 -19.36825 -10.42657 -10.42370
 Alpha  occ. eigenvalues --  -10.41239 -10.40789  -8.35186  -6.31787  -6.31461
 Alpha  occ. eigenvalues --   -6.31291  -1.33263  -1.24860  -1.03721  -0.99139
 Alpha  occ. eigenvalues --   -0.91807  -0.82496  -0.78932  -0.73440  -0.72148
 Alpha  occ. eigenvalues --   -0.69575  -0.66286  -0.64300  -0.63092  -0.59870
 Alpha  occ. eigenvalues --   -0.58759  -0.56626  -0.53513  -0.51684  -0.50572
 Alpha  occ. eigenvalues --   -0.48261
 Alpha virt. eigenvalues --   -0.24850  -0.20468  -0.17035  -0.14559  -0.10666
 Alpha virt. eigenvalues --   -0.09698  -0.08025  -0.05855  -0.04861  -0.02500
 Alpha virt. eigenvalues --   -0.01574   0.05127   0.06215   0.10696   0.12993

 Mulliken charges:
               1
     1  C   -0.260127
     2  C   -0.296576
     3  S    1.127462
     4  O   -0.416978
     5  C   -0.300907
     6  C   -0.269588
     7  O   -0.596122
     8  H    0.249592
     9  H    0.252239
    10  H    0.265432
    11  H    0.271824
    12  H    0.251396
    13  H    0.232444
    14  H    0.489910
 Sum of Mulliken charges =   1.00000

 Dipole moment (field-independent basis, Debye):
    X=              1.5875    Y=              2.1237    Z=             -0.9691  Tot=              2.8230
 Quadrupole moment (field-independent basis, Debye-Ang):
   XX=            -22.8062   YY=            -39.3648   ZZ=            -43.4037
   XY=             -3.5852   XZ=             -0.3563   YZ=              3.3128

  Exact polarizability:  90.271   2.207  48.158  -7.995  -3.111  50.937
 Approx polarizability: 130.490   8.486  72.891 -23.618 -10.733  86.203

                      1                      2                      3
                      A                      A                      A
 Frequencies --     75.8702                99.9122               188.1246
 Red. masses --      2.6522                 2.5886                 2.1488
 Frc consts  --      0.0090                 0.0152                 0.0448
 IR Inten    --      6.5776                 1.1317                12.1430

                      4                      5                      6
                      A                      A                      A
 Frequencies --    233.5031               240.3862               303.1480
 Red. masses --      3.2677                 5.4529                 1.1831
 Frc consts  --      0.1050                 0.1857                 0.0641
 IR Inten    --      1.7279                 1.7634                78.6456

                      7                      8                      9
                      A                      A                      A
 Frequencies --    351.2472               388.6555               411.4758
 Red. masses --      2.9853                 3.9969                 4.7044
 Frc consts  --      0.2170                 0.3557                 0.4693
 IR Inten    --     15.2848                16.3638                37.2219

                     10                     11                     12
                      A                      A                      A
 Frequencies --    532.0020               588.9135               620.9254
 Red. masses --      3.5578                 1.7677                 2.3483
 Frc consts  --      0.5933                 0.3612                 0.5334
 IR Inten    --     17.4245                21.3787                 4.9571

                     13                     14                     15
                      A                      A                      A
 Frequencies --    678.4589               763.3418               844.9620
 Red. masses --      2.6309                 4.6678                 8.9147
 Frc consts  --      0.7135                 1.6025                 3.7500
 IR Inten    --     34.2967               152.7503               194.0065

                     16                     17                     18
                      A                      A                      A
 Frequencies --    952.6198               965.1737              1023.6597
 Red. masses --      1.0785                 1.0817                 1.3082
 Frc consts  --      0.5766                 0.5937                 0.8077
 IR Inten    --     12.2992                17.8596                 4.3852

                     19                     20                     21
                      A                      A                      A
 Frequencies --   1040.9267              1045.4514              1053.0900
 Red. masses --      1.4074                 1.3093                 1.3037
 Frc consts  --      0.8985                 0.8432                 0.8518
 IR Inten    --      0.5491                39.0885                35.8816

                     22                     23                     24
                      A                      A                      A
 Frequencies --   1151.6687              1268.4817              1282.2101
 Red. masses --      1.2476                 1.9094                 1.2733
 Frc consts  --      0.9749                 1.8101                 1.2334
 IR Inten    --     67.9725                66.2715                 6.8277

                     25                     26                     27
                      A                      A                      A
 Frequencies --   1307.1205              1432.8506              1436.1691
 Red. masses --      2.4271                 1.2264                 1.2231
 Frc consts  --      2.4433                 1.4834                 1.4864
 IR Inten    --     62.8418                45.3683                36.1858

                     28                     29                     30
                      A                      A                      A
 Frequencies --   1663.3160              1667.8773              3184.0757
 Red. masses --      3.7940                 3.8163                 1.0587
 Frc consts  --      6.1843                 6.2549                 6.3240
 IR Inten    --      5.3041                15.2221                10.9023

                     31                     32                     33
                      A                      A                      A
 Frequencies --   3186.0261              3223.3152              3234.8339
 Red. masses --      1.0587                 1.0980                 1.0986
 Frc consts  --      6.3317                 6.7214                 6.7735
 IR Inten    --      7.4214                16.5791                11.9345

                     34                     35                     36
                      A                      A                      A
 Frequencies --   3276.6069              3277.3940              3612.1652
 Red. masses --      1.1184                 1.1190                 1.0663
 Frc consts  --      7.0747                 7.0816                 8.1971
 IR Inten    --      9.0709                13.1660               233.9345

 - Thermochemistry -
 -------------------
 Temperature     0.001 Kelvin.  Pressure   1.00000 Atm.
 Atom     1 has atomic number  6 and mass  12.00000

 Molecular mass:   119.01668 amu.
 Principal axes and moments of inertia in atomic units:
                           1         2         3
     Eigenvalues --   517.199061052.053371116.60560
           X            0.99997  -0.00786  -0.00075
           Y            0.00789   0.99792   0.06393
           Z            0.00024  -0.06394   0.99795
 This molecule is an asymmetric top.
 Rotational symmetry number  1.
 Warning -- assumption of classical behavior for rotation
           may cause significant error
 Rotational temperatures (Kelvin)      0.16747     0.08233     0.07757
 Rotational constants (GHZ):           3.48945     1.71545     1.61627
 Zero-point vibrational energy     278765.5 (Joules/Mol)
                                   66.62656 (Kcal/Mol)
 Vibrational temperatures:    109.16   143.75   270.67   335.96   345.86
          (Kelvin)            436.16   505.37   559.19   592.02   765.43
                              847.32   893.37   976.15  1098.28  1215.71
                             1370.61  1388.67  1472.82  1497.66  1504.17
                             1515.16  1656.99  1825.06  1844.81  1880.65
                             2061.55  2066.33  2393.14  2399.70  4581.17
                             4583.98  4637.63  4654.20  4714.31  4715.44
                             5197.10

 Zero-point correction=                           0.106176 (Hartree/Particle)
 Thermal correction to Energy=                    0.106176
 Thermal correction to Enthalpy=                  0.106176
 Thermal correction to Gibbs Free Energy=         0.106176
 Sum of electronic and zero-point Energies=           -704.768386
 Sum of electronic and thermal Energies=              -704.768385
 Sum of electronic and thermal Enthalpies=            -704.768385
 Sum of electronic and thermal Free Energies=         -704.768385

                     E (Thermal)             CV                S
                      KCal/Mol        Cal/Mol-Kelvin    Cal/Mol-Kelvin
 Total                   66.627              5.962            -32.062
 Electronic               0.000              0.000              0.000
 Translational            0.000              2.981            -22.387
 Rotational               0.000              2.981             -9.676
 Vibrational             66.627              0.000              0.000

                           ! Non-Optimized Parameters !
 Normal termination of Gaussian 16 at Mon Oct 14 01:39:23 2019.
