 Gaussian 16, Revision A.03,
 Gaussian 16:  ES64L-G16RevA.03 25-Dec-2016

 --------------------------------------------------------------
 #P opt freq b3lyp/6-31g(d) geom=connectivity temperature=0.001
 --------------------------------------------------------------

 -------------------
 Title Card Required
 -------------------
 Symbolic Z-matrix:
 Charge =  0 Multiplicity = 1

 SCF Done:  E(RB3LYP) =  -911.237980595     A.U. after   16 cycles
 SCF Done:  E(RB3LYP) =  -911.282771826     A.U. after   14 cycles
 SCF Done:  E(RB3LYP) =  -911.300924289     A.U. after   14 cycles
 SCF Done:  E(RB3LYP) =  -911.311054034     A.U. after   13 cycles
 SCF Done:  E(RB3LYP) =  -911.317730734     A.U. after   13 cycles
 SCF Done:  E(RB3LYP) =  -911.322324647     A.U. after   15 cycles
 SCF Done:  E(RB3LYP) =  -911.324580497     A.U. after   12 cycles
 SCF Done:  E(RB3LYP) =  -911.325571864     A.U. after   12 cycles
 SCF Done:  E(RB3LYP) =  -911.326349675     A.U. after   12 cycles
 SCF Done:  E(RB3LYP) =  -911.326541308     A.U. after   12 cycles
 SCF Done:  E(RB3LYP) =  -911.326577170     A.U. after   11 cycles
 SCF Done:  E(RB3LYP) =  -911.326593562     A.U. after   10 cycles
 SCF Done:  E(RB3LYP) =  -911.326594691     A.U. after    8 cycles
 SCF Done:  E(RB3LYP) =  -911.326595010     A.U. after    8 cycles
 SCF Done:  E(RB3LYP) =  -911.326595073     A.U. after    8 cycles
 Optimization completed.
    -- Stationary point found.
 Normal termination of Gaussian 16 at Mon Oct 14 01:39:57 2019.

 --------------------------------------------------------------------
 #P Geom=AllCheck Guess=TCheck SCRF=Check GenChk RB3LYP/6-31G(d) Freq
 --------------------------------------------------------------------

 Structure from the checkpoint file:  "29.chk"
 -------------------
 Title Card Required
 -------------------
 Charge =  0 Multiplicity = 1

                         Standard orientation:
 ---------------------------------------------------------------------
 Center     Atomic      Atomic             Coordinates (Angstroms)
 Number     Number       Type             X           Y           Z
 ---------------------------------------------------------------------
      1          8           0        1.719645   -0.464875    1.480256
      2         16           0        1.275599    0.380011    0.370742
      3          6           0       -0.490039    0.164998    0.171746
      4          6           0       -1.223955    1.157078   -0.482058
      5          6           0       -2.598873    0.983176   -0.634359
      6          6           0       -3.218984   -0.167413   -0.139078
      7          6           0       -2.471041   -1.148200    0.516328
      8          6           0       -1.094544   -0.986529    0.679245
      9          7           0        1.842009   -0.222161   -1.170608
     10          8           0        1.780845   -1.646451   -1.185441
     11          8           0        1.623669    1.802140    0.302888
     12          1           0       -0.723243    2.047005   -0.848410
     13          1           0       -3.186593    1.747289   -1.134760
     14          1           0       -4.291058   -0.296678   -0.259470
     15          1           0       -2.958913   -2.036356    0.907371
     16          1           0       -0.494814   -1.724890    1.200152
     17          1           0        2.840563    0.009465   -1.195038
     18          1           0        1.101758   -1.816046   -1.860022
 ---------------------------------------------------------------------

 SCF Done:  E(RB3LYP) =  -911.326595073     A.U. after    1 cycles

 The electronic state is 1-A.
 Alpha  occ. eigenvalues --  -89.11031 -19.20732 -19.15020 -19.15019 -14.41801
 Alpha  occ. eigenvalues --  -10.23715 -10.22141 -10.22113 -10.21873 -10.21619
 Alpha  occ. eigenvalues --  -10.21610  -8.13775  -6.10234  -6.10170  -6.10073
 Alpha  occ. eigenvalues --   -1.12215  -1.08173  -1.00631  -0.88375  -0.84828
 Alpha  occ. eigenvalues --   -0.78529  -0.77239  -0.67998  -0.63187  -0.60443
 Alpha  occ. eigenvalues --   -0.55461  -0.53591  -0.52153  -0.49638  -0.48007
 Alpha  occ. eigenvalues --   -0.47056  -0.46158  -0.44781  -0.44443  -0.39368
 Alpha  occ. eigenvalues --   -0.38816  -0.37137  -0.35970  -0.33478  -0.32772
 Alpha  occ. eigenvalues --   -0.31755  -0.29783  -0.28854  -0.27622  -0.27209
 Alpha virt. eigenvalues --   -0.04627  -0.02588   0.04066   0.04930   0.07296
 Alpha virt. eigenvalues --    0.08543   0.09725   0.11114   0.11682   0.12916
 Alpha virt. eigenvalues --    0.14572   0.15652   0.15830   0.17283   0.18941

 Mulliken charges:
               1
     1  O   -0.506964
     2  S    1.218131
     3  C   -0.172720
     4  C   -0.129322
     5  C   -0.129493
     6  C   -0.117850
     7  C   -0.130122
     8  C   -0.138322
     9  N   -0.460898
    10  O   -0.500844
    11  O   -0.536601
    12  H    0.184058
    13  H    0.149230
    14  H    0.147132
    15  H    0.149183
    16  H    0.188399
    17  H    0.362230
    18  H    0.424776
 Sum of Mulliken charges =  -0.00000

 Dipole moment (field-independent basis, Debye):
    X=             -3.8376    Y=             -1.5104    Z=             -3.0382  Tot=              5.1224
 Quadrupole moment (field-independent basis, Debye-Ang):
   XX=            -62.7993   YY=            -70.3119   ZZ=            -70.4343
   XY=             -0.0897   XZ=             -4.7226   YZ=             -0.4371

  Exact polarizability: 118.167   4.785  89.796   5.354 -13.728  62.770
 Approx polarizability: 171.748   9.744 163.137  14.440 -34.315 104.801

                      1                      2                      3
                      A                      A                      A
 Frequencies --     30.0595                64.4059               130.7501
 Red. masses --      4.5754                 6.1932                 4.1550
 Frc consts  --      0.0024                 0.0151                 0.0419
 IR Inten    --      0.4720                 0.0827                 3.0841

                      4                      5                      6
                      A                      A                      A
 Frequencies --    180.0608               213.4663               271.1449
 Red. masses --      6.8709                 9.6197                 3.2515
 Frc consts  --      0.1313                 0.2583                 0.1408
 IR Inten    --      0.6922                 0.5918                 1.0927

                      7                      8                      9
                      A                      A                      A
 Frequencies --    301.7384               342.3998               378.9956
 Red. masses --      8.6895                 4.6874                 1.7029
 Frc consts  --      0.4661                 0.3238                 0.1441
 IR Inten    --      2.5460                14.7915                35.5256

                     10                     11                     12
                      A                      A                      A
 Frequencies --    413.5206               430.1567               464.6607
 Red. masses --      2.9737                 4.1437                 5.0108
 Frc consts  --      0.2996                 0.4517                 0.6374
 IR Inten    --      0.0176                37.9864                14.1626

                     13                     14                     15
                      A                      A                      A
 Frequencies --    547.5704               555.9120               627.3023
 Red. masses --      5.7768                 7.0604                 6.4324
 Frc consts  --      1.0205                 1.2856                 1.4913
 IR Inten    --    161.5866                30.5068                 0.5033

                     16                     17                     18
                      A                      A                      A
 Frequencies --    653.6608               699.0469               722.7450
 Red. masses --      6.7813                 2.5632                 4.5733
 Frc consts  --      1.7071                 0.7380                 1.4075
 IR Inten    --    106.3959                24.0481                78.3034

                     19                     20                     21
                      A                      A                      A
 Frequencies --    768.1442               862.9522               944.3168
 Red. masses --      1.5195                 1.2427                 1.3313
 Frc consts  --      0.5282                 0.5452                 0.6995
 IR Inten    --     14.2826                 0.1483                 0.0201

                     22                     23                     24
                      A                      A                      A
 Frequencies --    959.6526               982.1974              1009.2706
 Red. masses --      2.8206                 1.3558                 1.3333
 Frc consts  --      1.5305                 0.7706                 0.8002
 IR Inten    --     31.3811                 0.1465                 5.3915

                     25                     26                     27
                      A                      A                      A
 Frequencies --   1011.7470              1017.6604              1050.0265
 Red. masses --      2.9423                 3.6518                 2.9838
 Frc consts  --      1.7745                 2.2282                 1.9383
 IR Inten    --     31.1084                21.8982                 2.9400

                     28                     29                     30
                      A                      A                      A
 Frequencies --   1092.5924              1109.7824              1148.5806
 Red. masses --      3.4571                 1.5605                 6.2424
 Frc consts  --      2.4315                 1.1323                 4.8521
 IR Inten    --     30.8399                 5.0718               177.0672

                     31                     32                     33
                      A                      A                      A
 Frequencies --   1196.5870              1210.4822              1332.4154
 Red. masses --      1.1087                 1.1578                14.1199
 Frc consts  --      0.9353                 0.9996                14.7694
 IR Inten    --      0.0760                 1.3991               152.0171

                     34                     35                     36
                      A                      A                      A
 Frequencies --   1345.2227              1361.7889              1365.3110
 Red. masses --      1.6124                 1.1592                 3.7869
 Frc consts  --      1.7192                 1.2666                 4.1591
 IR Inten    --      0.9722                75.0286                 1.3165

                     37                     38                     39
                      A                      A                      A
 Frequencies --   1477.8939              1493.7568              1526.7087
 Red. masses --      1.1001                 2.1710                 2.0467
 Frc consts  --      1.4156                 2.8540                 2.8107
 IR Inten    --      8.2074                17.0342                 3.2889

                     40                     41                     42
                      A                      A                      A
 Frequencies --   1644.5728              1645.2301              3192.5285
 Red. masses --      5.5382                 5.5205                 1.0862
 Frc consts  --      8.8252                 8.8040                 6.5228
 IR Inten    --      1.0130                 0.8983                 0.7286

                     43                     44                     45
                      A                      A                      A
 Frequencies --   3204.6768              3213.8954              3230.4233
 Red. masses --      1.0900                 1.0949                 1.0936
 Frc consts  --      6.5957                 6.6630                 6.7243
 IR Inten    --     13.3971                14.8937                 2.6045

                     46                     47                     48
                      A                      A                      A
 Frequencies --   3234.5968              3441.6315              3721.7551
 Red. masses --      1.0936                 1.0753                 1.0682
 Frc consts  --      6.7412                 7.5046                 8.7179
 IR Inten    --      2.8843                15.4288                36.3805

 - Thermochemistry -
 -------------------
 Temperature     0.001 Kelvin.  Pressure   1.00000 Atm.
 Atom     1 has atomic number  8 and mass  15.99491

 Molecular mass:   173.01466 amu.
 Principal axes and moments of inertia in atomic units:
                           1         2         3
     Eigenvalues --  1023.103442533.859982782.10278
           X            0.99998  -0.00225  -0.00637
           Y            0.00187   0.99825  -0.05918
           Z            0.00650   0.05916   0.99823
 This molecule is an asymmetric top.
 Rotational symmetry number  1.
 Warning -- assumption of classical behavior for rotation
           may cause significant error
 Rotational temperatures (Kelvin)      0.08466     0.03418     0.03113
 Rotational constants (GHZ):           1.76399     0.71225     0.64870
 Zero-point vibrational energy     345864.3 (Joules/Mol)
                                   82.66355 (Kcal/Mol)
 Vibrational temperatures:     43.25    92.67   188.12   259.07   307.13
          (Kelvin)            390.12   434.13   492.64   545.29   594.96
                              618.90   668.54   787.83   799.83   902.55
                              940.47  1005.77  1039.87  1105.19  1241.60
                             1358.66  1380.73  1413.16  1452.12  1455.68
                             1464.19  1510.75  1572.00  1596.73  1652.55
                             1721.62  1741.61  1917.05  1935.48  1959.31
                             1964.38  2126.36  2149.18  2196.59  2366.17
                             2367.12  4593.34  4610.82  4624.08  4647.86
                             4653.86  4951.74  5354.78

 Zero-point correction=                           0.131733 (Hartree/Particle)
 Thermal correction to Energy=                    0.131733
 Thermal correction to Enthalpy=                  0.131733
 Thermal correction to Gibbs Free Energy=         0.131733
 Sum of electronic and zero-point Energies=           -911.194862
 Sum of electronic and thermal Energies=              -911.194862
 Sum of electronic and thermal Enthalpies=            -911.194862
 Sum of electronic and thermal Free Energies=         -911.194862

                     E (Thermal)             CV                S
                      KCal/Mol        Cal/Mol-Kelvin    Cal/Mol-Kelvin
 Total                   82.664              5.962            -28.489
 Electronic               0.000              0.000              0.000
 Translational            0.000              2.981            -21.271
 Rotational               0.000              2.981             -7.217
 Vibrational             82.664              0.000              0.000

                           ! Non-Optimized Parameters !
 Normal termination of Gaussian 16 at Mon Oct 14 01:40:26 2019.
