 Gaussian 16, Revision A.03,
 Gaussian 16:  ES64L-G16RevA.03 25-Dec-2016

 --------------------------------------------------------------
 #P opt freq b3lyp/6-31g(d) geom=connectivity temperature=0.001
 --------------------------------------------------------------

 -------------------
 Title Card Required
 -------------------
 Symbolic Z-matrix:
 Charge =  1 Multiplicity = 1

 SCF Done:  E(RB3LYP) =  -911.561135357     A.U. after   17 cycles
 SCF Done:  E(RB3LYP) =  -911.601640477     A.U. after   14 cycles
 SCF Done:  E(RB3LYP) =  -911.617733078     A.U. after   14 cycles
 SCF Done:  E(RB3LYP) =  -911.630977163     A.U. after   13 cycles
 SCF Done:  E(RB3LYP) =  -911.639390150     A.U. after   14 cycles
 SCF Done:  E(RB3LYP) =  -911.642863635     A.U. after   13 cycles
 SCF Done:  E(RB3LYP) =  -911.644432580     A.U. after   12 cycles
 SCF Done:  E(RB3LYP) =  -911.644875513     A.U. after   12 cycles
 SCF Done:  E(RB3LYP) =  -911.644929481     A.U. after   12 cycles
 SCF Done:  E(RB3LYP) =  -911.644951339     A.U. after   10 cycles
 SCF Done:  E(RB3LYP) =  -911.650208996     A.U. after   13 cycles
 SCF Done:  E(RB3LYP) =  -911.650349738     A.U. after   14 cycles
 SCF Done:  E(RB3LYP) =  -911.650760566     A.U. after   12 cycles
 SCF Done:  E(RB3LYP) =  -911.651329749     A.U. after   13 cycles
 SCF Done:  E(RB3LYP) =  -911.651388091     A.U. after   13 cycles
 SCF Done:  E(RB3LYP) =  -911.651486327     A.U. after   11 cycles
 SCF Done:  E(RB3LYP) =  -911.651558148     A.U. after   12 cycles
 SCF Done:  E(RB3LYP) =  -911.651564219     A.U. after   10 cycles
 SCF Done:  E(RB3LYP) =  -911.651564954     A.U. after    8 cycles
 Optimization completed.
    -- Stationary point found.
 Normal termination of Gaussian 16 at Mon Oct 14 01:43:43 2019.

 --------------------------------------------------------------------
 #P Geom=AllCheck Guess=TCheck SCRF=Check GenChk RB3LYP/6-31G(d) Freq
 --------------------------------------------------------------------

 Structure from the checkpoint file:  "29_p.chk"
 -------------------
 Title Card Required
 -------------------
 Charge =  1 Multiplicity = 1

                         Standard orientation:
 ---------------------------------------------------------------------
 Center     Atomic      Atomic             Coordinates (Angstroms)
 Number     Number       Type             X           Y           Z
 ---------------------------------------------------------------------
      1          8           0       -1.505531   -0.196431   -1.497599
      2         16           0       -1.036513    0.442758   -0.114538
      3          6           0        0.670872    0.087922   -0.025055
      4          6           0        1.527615    1.183899    0.158836
      5          6           0        2.895368    0.931003    0.221871
      6          6           0        3.373608   -0.377160    0.103029
      7          6           0        2.496084   -1.453816   -0.080112
      8          6           0        1.125138   -1.235574   -0.146077
      9          7           0       -1.813800   -0.668528    0.966287
     10          8           0       -3.141750   -0.866309    0.493367
     11          8           0       -1.369397    1.841821    0.075110
     12          1           0        1.135384    2.191441    0.244967
     13          1           0        3.585025    1.756651    0.362217
     14          1           0        4.442103   -0.562795    0.153930
     15          1           0        2.881857   -2.463785   -0.171444
     16          1           0        0.434660   -2.059447   -0.286040
     17          1           0       -1.900557   -0.193221    1.873637
     18          1           0       -3.206587   -1.838224    0.419846
     19          1           0       -2.489760   -0.285338   -1.490497
 ---------------------------------------------------------------------

 SCF Done:  E(RB3LYP) =  -911.651564954     A.U. after    1 cycles

 The electronic state is 1-A.
 Alpha  occ. eigenvalues --  -89.32502 -19.41377 -19.39766 -19.36519 -14.61916
 Alpha  occ. eigenvalues --  -10.41358 -10.38075 -10.37931 -10.36266 -10.35914
 Alpha  occ. eigenvalues --  -10.35770  -8.35520  -6.32057  -6.31885  -6.31663
 Alpha  occ. eigenvalues --   -1.34132  -1.27655  -1.24541  -1.06781  -1.03458
 Alpha  occ. eigenvalues --   -0.95867  -0.92378  -0.88140  -0.79280  -0.78104
 Alpha  occ. eigenvalues --   -0.77586  -0.74004  -0.71077  -0.69933  -0.65900
 Alpha  occ. eigenvalues --   -0.65594  -0.62745  -0.62401  -0.60467  -0.59685
 Alpha  occ. eigenvalues --   -0.57582  -0.55641  -0.54443  -0.53168  -0.52191
 Alpha  occ. eigenvalues --   -0.51829  -0.50405  -0.47940  -0.43585  -0.42343
 Alpha virt. eigenvalues --   -0.23087  -0.17155  -0.16595  -0.14816  -0.12449
 Alpha virt. eigenvalues --   -0.11493  -0.08996  -0.07125  -0.06372  -0.03685
 Alpha virt. eigenvalues --   -0.02717  -0.00905  -0.00301   0.01341   0.04553

 Mulliken charges:
               1
     1  O   -0.591679
     2  S    1.232957
     3  C   -0.187825
     4  C   -0.110294
     5  C   -0.121857
     6  C   -0.095400
     7  C   -0.123040
     8  C   -0.092662
     9  N   -0.428368
    10  O   -0.487248
    11  O   -0.384441
    12  H    0.224255
    13  H    0.203672
    14  H    0.203945
    15  H    0.200931
    16  H    0.198035
    17  H    0.407323
    18  H    0.466783
    19  H    0.484912
 Sum of Mulliken charges =   1.00000

 Dipole moment (field-independent basis, Debye):
    X=             -0.5221    Y=             -3.0374    Z=              0.9120  Tot=              3.2140
 Quadrupole moment (field-independent basis, Debye-Ang):
   XX=            -31.8773   YY=            -57.4553   ZZ=            -64.5873
   XY=              8.5304   XZ=              1.3950   YZ=              1.1420

  Exact polarizability: 136.087   2.117  95.797   3.042   4.661  50.220
 Approx polarizability: 200.715   0.153 177.135   7.100  11.596  79.794

                      1                      2                      3
                      A                      A                      A
 Frequencies --     43.4608                70.2440                97.1890
 Red. masses --      4.2616                 3.6770                 5.7862
 Frc consts  --      0.0047                 0.0107                 0.0322
 IR Inten    --      2.5132                 7.0395                 0.7390

                      4                      5                      6
                      A                      A                      A
 Frequencies --    152.1021               221.1296               254.8329
 Red. masses --      4.6497                 4.0205                 2.3282
 Frc consts  --      0.0634                 0.1158                 0.0891
 IR Inten    --     11.5739                14.7403                71.1793

                      7                      8                      9
                      A                      A                      A
 Frequencies --    297.0062               328.8866               341.4526
 Red. masses --      6.4400                 3.5111                 3.8820
 Frc consts  --      0.3347                 0.2238                 0.2667
 IR Inten    --      5.5062                 1.8756                14.2659

                     10                     11                     12
                      A                      A                      A
 Frequencies --    389.8067               404.8503               442.5002
 Red. masses --      3.4329                 2.8386                 6.4993
 Frc consts  --      0.3073                 0.2741                 0.7498
 IR Inten    --     47.2149                 4.8359                 8.3877

                     13                     14                     15
                      A                      A                      A
 Frequencies --    475.4306               546.6816               583.9985
 Red. masses --      4.8670                 1.9987                 2.8383
 Frc consts  --      0.6482                 0.3519                 0.5703
 IR Inten    --     18.2665               156.4073                59.1717

                     16                     17                     18
                      A                      A                      A
 Frequencies --    616.5972               634.0503               674.1505
 Red. masses --      6.0242                 3.9326                 2.7495
 Frc consts  --      1.3494                 0.9315                 0.7362
 IR Inten    --      9.0238                62.7915                20.0375

                     19                     20                     21
                      A                      A                      A
 Frequencies --    721.5713               760.3401               844.0744
 Red. masses --      5.9539                 1.3235                 1.2933
 Frc consts  --      1.8264                 0.4508                 0.5429
 IR Inten    --     38.9567                51.0266                12.3151

                     22                     23                     24
                      A                      A                      A
 Frequencies --    862.2027               955.9723               971.0090
 Red. masses --      8.1886                 1.2737                 6.0646
 Frc consts  --      3.5866                 0.6858                 3.3690
 IR Inten    --    225.8339                 0.5155                19.2082

                     25                     26                     27
                      A                      A                      A
 Frequencies --    995.7101              1009.6099              1026.8702
 Red. masses --      1.3558                 6.4152                 1.6166
 Frc consts  --      0.7920                 3.8527                 1.0043
 IR Inten    --      0.0954                 1.7995                18.2984

                     28                     29                     30
                      A                      A                      A
 Frequencies --   1037.2939              1042.1212              1074.2651
 Red. masses --      1.3455                 3.6343                 2.4630
 Frc consts  --      0.8530                 2.3254                 1.6747
 IR Inten    --      0.2651                19.0990                90.7622

                     31                     32                     33
                      A                      A                      A
 Frequencies --   1123.5397              1194.8072              1209.3699
 Red. masses --      1.5767                 1.1993                 1.0992
 Frc consts  --      1.1727                 1.0087                 0.9472
 IR Inten    --      4.0540               140.7874                 0.3895

                     34                     35                     36
                      A                      A                      A
 Frequencies --   1220.2682              1291.8351              1355.1405
 Red. masses --      1.1678                 8.7040                 1.5182
 Frc consts  --      1.0246                 8.5582                 1.6426
 IR Inten    --      2.3300               174.9069                 1.5709

                     37                     38                     39
                      A                      A                      A
 Frequencies --   1378.3421              1396.0917              1459.7451
 Red. masses --      4.3022                 1.2057                 1.0841
 Frc consts  --      4.8156                 1.3846                 1.3611
 IR Inten    --     13.5832                74.8755                 8.2472

                     40                     41                     42
                      A                      A                      A
 Frequencies --   1496.1771              1513.7424              1625.3760
 Red. masses --      2.1906                 1.8969                 5.0057
 Frc consts  --      2.8892                 2.5610                 7.7915
 IR Inten    --     33.6720                 0.9465                26.5943

                     43                     44                     45
                      A                      A                      A
 Frequencies --   1631.5712              3218.4830              3227.8505
 Red. masses --      5.2662                 1.0886                 1.0899
 Frc consts  --      8.2596                 6.6440                 6.6904
 IR Inten    --      0.5613                 0.2670                 0.8802

                     46                     47                     48
                      A                      A                      A
 Frequencies --   3232.4114              3240.2979              3242.2220
 Red. masses --      1.0929                 1.0953                 1.0974
 Frc consts  --      6.7282                 6.7755                 6.7970
 IR Inten    --      1.1717                 3.5514                 0.6774

                     49                     50                     51
                      A                      A                      A
 Frequencies --   3422.6994              3532.2815              3678.5521
 Red. masses --      1.0761                 1.0640                 1.0686
 Frc consts  --      7.4273                 7.8218                 8.5196
 IR Inten    --     60.7975               225.0478               137.6466

 - Thermochemistry -
 -------------------
 Temperature     0.001 Kelvin.  Pressure   1.00000 Atm.
 Atom     1 has atomic number  8 and mass  15.99491

 Molecular mass:   174.02249 amu.
 Principal axes and moments of inertia in atomic units:
                           1         2         3
     Eigenvalues --   839.812202817.274293221.61315
           X            0.99996   0.00922   0.00082
           Y           -0.00923   0.99989   0.01203
           Z           -0.00071  -0.01203   0.99993
 This molecule is an asymmetric top.
 Rotational symmetry number  1.
 Warning -- assumption of classical behavior for rotation
           may cause significant error
 Rotational temperatures (Kelvin)      0.10313     0.03074     0.02689
 Rotational constants (GHZ):           2.14898     0.64060     0.56020
 Zero-point vibrational energy     374229.1 (Joules/Mol)
                                   89.44289 (Kcal/Mol)
 Vibrational temperatures:     62.53   101.07   139.83   218.84   318.16
          (Kelvin)            366.65   427.33   473.19   491.27   560.84
                              582.49   636.66   684.04   786.55   840.24
                              887.15   912.26   969.95  1038.18  1093.96
                             1214.43  1240.52  1375.43  1397.07  1432.60
                             1452.60  1477.44  1492.43  1499.38  1545.63
                             1616.52  1719.06  1740.01  1755.69  1858.66
                             1949.74  1983.13  2008.66  2100.25  2152.67
                             2177.94  2338.55  2347.47  4630.68  4644.16
                             4650.72  4662.07  4664.83  4924.50  5082.17
                             5292.62

 Zero-point correction=                           0.142536 (Hartree/Particle)
 Thermal correction to Energy=                    0.142536
 Thermal correction to Enthalpy=                  0.142536
 Thermal correction to Gibbs Free Energy=         0.142536
 Sum of electronic and zero-point Energies=           -911.509029
 Sum of electronic and thermal Energies=              -911.509029
 Sum of electronic and thermal Enthalpies=            -911.509029
 Sum of electronic and thermal Free Energies=         -911.509029

                     E (Thermal)             CV                S
                      KCal/Mol        Cal/Mol-Kelvin    Cal/Mol-Kelvin
 Total                   89.443              5.962            -28.417
 Electronic               0.000              0.000              0.000
 Translational            0.000              2.981            -21.254
 Rotational               0.000              2.981             -7.162
 Vibrational             89.443              0.000              0.000

                           ! Non-Optimized Parameters !
 Normal termination of Gaussian 16 at Mon Oct 14 01:44:13 2019.
