 Gaussian 16, Revision A.03,
 Gaussian 16:  ES64L-G16RevA.03 25-Dec-2016

 --------------------------------------------------------------
 #P opt freq b3lyp/6-31g(d) geom=connectivity temperature=0.001
 --------------------------------------------------------------

 -------------------
 Title Card Required
 -------------------
 Symbolic Z-matrix:
 Charge =  1 Multiplicity = 1

 SCF Done:  E(RB3LYP) =  -607.926596156     A.U. after   19 cycles
 SCF Done:  E(RB3LYP) =  -607.968941134     A.U. after   16 cycles
 SCF Done:  E(RB3LYP) =  -607.982040458     A.U. after   16 cycles
 SCF Done:  E(RB3LYP) =  -607.989798102     A.U. after   16 cycles
 SCF Done:  E(RB3LYP) =  -607.996728726     A.U. after   16 cycles
 SCF Done:  E(RB3LYP) =  -607.998930281     A.U. after   12 cycles
 SCF Done:  E(RB3LYP) =  -608.000703826     A.U. after   12 cycles
 SCF Done:  E(RB3LYP) =  -608.001004179     A.U. after   12 cycles
 SCF Done:  E(RB3LYP) =  -608.001260775     A.U. after   13 cycles
 SCF Done:  E(RB3LYP) =  -608.001355966     A.U. after   12 cycles
 SCF Done:  E(RB3LYP) =  -608.001447314     A.U. after   11 cycles
 SCF Done:  E(RB3LYP) =  -608.001457621     A.U. after   10 cycles
 SCF Done:  E(RB3LYP) =  -608.001459733     A.U. after   10 cycles
 SCF Done:  E(RB3LYP) =  -608.001460161     A.U. after    8 cycles
 SCF Done:  E(RB3LYP) =  -608.001460389     A.U. after    8 cycles
 SCF Done:  E(RB3LYP) =  -608.001460565     A.U. after    8 cycles
 SCF Done:  E(RB3LYP) =  -608.001460656     A.U. after    8 cycles
 Optimization completed.
    -- Stationary point found.
 Normal termination of Gaussian 16 at Mon Oct 14 01:43:03 2019.

 --------------------------------------------------------------------
 #P Geom=AllCheck Guess=TCheck SCRF=Check GenChk RB3LYP/6-31G(d) Freq
 --------------------------------------------------------------------

 Structure from the checkpoint file:  "2_p.chk"
 -------------------
 Title Card Required
 -------------------
 Charge =  1 Multiplicity = 1

                         Standard orientation:
 ---------------------------------------------------------------------
 Center     Atomic      Atomic             Coordinates (Angstroms)
 Number     Number       Type             X           Y           Z
 ---------------------------------------------------------------------
      1          8           0        0.299098    3.112258   -0.112785
      2          7           0        1.067751    1.982194    0.041327
      3          6           0        0.523051    0.799827    0.013964
      4          6           0        1.376370   -0.457587    0.003297
      5          8           0        2.682924   -0.303300   -0.003913
      6          6           0        3.485183   -1.521769   -0.012608
      7          7           0        0.672996   -1.529188    0.006635
      8          6           0       -0.686305   -1.089306    0.008029
      9          6           0       -1.805632   -1.889711    0.005838
     10          6           0       -3.066324   -1.252451   -0.000057
     11          6           0       -3.204147    0.142052   -0.006050
     12          6           0       -2.075431    0.960321   -0.004848
     13          6           0       -0.817641    0.334984    0.007682
     14          1           0        0.513531    3.697252    0.642433
     15          1           0        4.518055   -1.180275   -0.020231
     16          1           0        3.263600   -2.104684    0.883263
     17          1           0        3.249402   -2.100728   -0.907422
     18          1           0       -1.719692   -2.970604    0.006600
     19          1           0       -3.960573   -1.868977   -0.003359
     20          1           0       -4.193676    0.585597   -0.015970
     21          1           0       -2.164485    2.040692   -0.020064
     22          1           0        2.077689    2.100865   -0.058881
 ---------------------------------------------------------------------

 SCF Done:  E(RB3LYP) =  -608.001460656     A.U. after    1 cycles

 The electronic state is 1-A.
 Alpha  occ. eigenvalues --  -19.40464 -19.36487 -14.65200 -14.48667 -10.46387
 Alpha  occ. eigenvalues --  -10.46209 -10.38758 -10.37810 -10.36722 -10.36581
 Alpha  occ. eigenvalues --  -10.35894 -10.34356 -10.34103  -1.31502  -1.25684
 Alpha  occ. eigenvalues --   -1.12983  -1.09358  -1.00412  -0.93666  -0.90110
 Alpha  occ. eigenvalues --   -0.88943  -0.84763  -0.80375  -0.78665  -0.76117
 Alpha  occ. eigenvalues --   -0.72781  -0.70481  -0.67191  -0.66428  -0.65057
 Alpha  occ. eigenvalues --   -0.63122  -0.60801  -0.59223  -0.58616  -0.57798
 Alpha  occ. eigenvalues --   -0.57291  -0.54627  -0.52194  -0.51360  -0.51119
 Alpha  occ. eigenvalues --   -0.50707  -0.49711  -0.45947  -0.43958  -0.41707
 Alpha  occ. eigenvalues --   -0.37946
 Alpha virt. eigenvalues --   -0.27797  -0.15996  -0.12839  -0.12377  -0.09896
 Alpha virt. eigenvalues --   -0.07263  -0.04744  -0.03606  -0.01854  -0.00557
 Alpha virt. eigenvalues --    0.01160   0.01919   0.02900   0.04290   0.04948

 Mulliken charges:
               1
     1  O   -0.428179
     2  N   -0.400617
     3  C    0.308083
     4  C    0.616825
     5  O   -0.500217
     6  C   -0.243085
     7  N   -0.523079
     8  C    0.247772
     9  C   -0.173719
    10  C   -0.098895
    11  C   -0.138402
    12  C   -0.132667
    13  C    0.166278
    14  H    0.464936
    15  H    0.209060
    16  H    0.210646
    17  H    0.211633
    18  H    0.202163
    19  H    0.200799
    20  H    0.192330
    21  H    0.195594
    22  H    0.412742
 Sum of Mulliken charges =   1.00000

 Dipole moment (field-independent basis, Debye):
    X=              1.7081    Y=              3.7561    Z=              1.2166  Tot=              4.3018
 Quadrupole moment (field-independent basis, Debye-Ang):
   XX=            -32.7866   YY=            -44.0253   ZZ=            -72.4990
   XY=              5.1847   XZ=              0.4734   YZ=              5.2547

  Exact polarizability: 177.069  17.638 134.641   0.872   1.695  44.780
 Approx polarizability: 303.525  62.031 244.333   2.108   1.662  69.115

                      1                      2                      3
                      A                      A                      A
 Frequencies --     91.9174               102.9420               123.3588
 Red. masses --      3.6349                 4.0672                 1.2098
 Frc consts  --      0.0181                 0.0254                 0.0108
 IR Inten    --      2.2571                 6.7923                 0.3321

                      4                      5                      6
                      A                      A                      A
 Frequencies --    144.6182               158.6313               174.5029
 Red. masses --      4.6952                 3.0724                 3.8882
 Frc consts  --      0.0579                 0.0456                 0.0698
 IR Inten    --      2.5395                 3.9425                 1.5344

                      7                      8                      9
                      A                      A                      A
 Frequencies --    239.8132               270.2627               298.1062
 Red. masses --      4.9619                 1.2157                 5.2143
 Frc consts  --      0.1681                 0.0523                 0.2730
 IR Inten    --      7.9163               226.3225                12.5189

                     10                     11                     12
                      A                      A                      A
 Frequencies --    343.4422               393.8642               395.8066
 Red. masses --      4.4672                 3.3097                 6.1033
 Frc consts  --      0.3104                 0.3025                 0.5634
 IR Inten    --     13.3230                 0.6617                 0.7383

                     13                     14                     15
                      A                      A                      A
 Frequencies --    475.3435               510.1553               547.3326
 Red. masses --      7.1674                 4.1280                 4.6195
 Frc consts  --      0.9542                 0.6330                 0.8154
 IR Inten    --     11.0404                20.0147                12.6317

                     16                     17                     18
                      A                      A                      A
 Frequencies --    555.2076               632.0533               670.9464
 Red. masses --      6.6374                 6.4999                 1.3750
 Frc consts  --      1.2055                 1.5299                 0.3647
 IR Inten    --     12.6693                 5.7722               119.1406

                     19                     20                     21
                      A                      A                      A
 Frequencies --    719.3026               734.6681               740.8697
 Red. masses --      5.9413                 5.5653                 4.7800
 Frc consts  --      1.8111                 1.7698                 1.5458
 IR Inten    --     18.8513                23.3371                 6.5029

                     22                     23                     24
                      A                      A                      A
 Frequencies --    754.4945               789.9781               887.6390
 Red. masses --      4.4157                 1.3687                 6.6356
 Frc consts  --      1.4810                 0.5033                 3.0804
 IR Inten    --      1.9757                55.6324                 3.4789

                     25                     26                     27
                      A                      A                      A
 Frequencies --    910.8891               933.9658               982.0351
 Red. masses --      1.3350                 7.8382                 1.3703
 Frc consts  --      0.6526                 4.0284                 0.7786
 IR Inten    --      2.5997                57.4388                 0.9167

                     28                     29                     30
                      A                      A                      A
 Frequencies --   1021.8150              1033.3411              1065.5551
 Red. masses --      1.3688                 2.8569                 3.8874
 Frc consts  --      0.8420                 1.7974                 2.6005
 IR Inten    --      1.0134                18.1595                51.7915

                     31                     32                     33
                      A                      A                      A
 Frequencies --   1089.2406              1130.1720              1177.7463
 Red. masses --      5.5459                 2.2923                 1.2566
 Frc consts  --      3.8767                 1.7251                 1.0270
 IR Inten    --     11.5174                47.9161                 1.2592

                     34                     35                     36
                      A                      A                      A
 Frequencies --   1184.7021              1201.0932              1220.5907
 Red. masses --      1.5397                 1.9660                 1.6308
 Frc consts  --      1.2732                 1.6711                 1.4315
 IR Inten    --     53.0440                 5.4953                 5.1950

                     37                     38                     39
                      A                      A                      A
 Frequencies --   1238.8535              1312.0490              1349.4816
 Red. masses --      2.3118                 2.2645                 2.6326
 Frc consts  --      2.0905                 2.2968                 2.8247
 IR Inten    --     25.7230               207.7107               122.7987

                     40                     41                     42
                      A                      A                      A
 Frequencies --   1401.1018              1413.8937              1463.5849
 Red. masses --      1.5685                 2.1565                 2.0368
 Frc consts  --      1.8142                 2.5400                 2.5706
 IR Inten    --     33.6147               133.8770                 5.6378

                     43                     44                     45
                      A                      A                      A
 Frequencies --   1477.8011              1489.6739              1506.2097
 Red. masses --      1.5470                 1.3457                 1.0462
 Frc consts  --      1.9905                 1.7595                 1.3984
 IR Inten    --     41.8289                 6.2422                14.2024

                     46                     47                     48
                      A                      A                      A
 Frequencies --   1511.7422              1533.9751              1631.2370
 Red. masses --      1.0484                 2.3848                 4.9951
 Frc consts  --      1.4116                 3.3063                 7.8312
 IR Inten    --     15.1119                18.5658                12.9417

                     49                     50                     51
                      A                      A                      A
 Frequencies --   1660.7424              1713.2865              1716.4145
 Red. masses --      7.5306                 6.8759                 9.0944
 Frc consts  --     12.2372                11.8915                15.7858
 IR Inten    --    626.8972               158.7489               173.5798

                     52                     53                     54
                      A                      A                      A
 Frequencies --   3095.7744              3184.9787              3215.8617
 Red. masses --      1.0284                 1.1099                 1.0896
 Frc consts  --      5.8069                 6.6334                 6.6393
 IR Inten    --     10.2380                 3.7869                 0.6215

                     55                     56                     57
                      A                      A                      A
 Frequencies --   3222.1279              3231.6876              3240.7316
 Red. masses --      1.1094                 1.0912                 1.0943
 Frc consts  --      6.7859                 6.7143                 6.7716
 IR Inten    --      3.8945                 0.1148                 0.4600

                     58                     59                     60
                      A                      A                      A
 Frequencies --   3244.8381              3496.5405              3642.4852
 Red. masses --      1.0962                 1.0799                 1.0682
 Frc consts  --      6.8005                 7.7788                 8.3499
 IR Inten    --      0.4839               240.5363               190.5130

 - Thermochemistry -
 -------------------
 Temperature     0.001 Kelvin.  Pressure   1.00000 Atm.
 Atom     1 has atomic number  8 and mass  15.99491

 Molecular mass:   177.06640 amu.
 Principal axes and moments of inertia in atomic units:
                           1         2         3
     Eigenvalues --  1493.805222647.439504125.11481
           X            0.99976  -0.02195   0.00017
           Y            0.02195   0.99974   0.00539
           Z           -0.00029  -0.00539   0.99999
 This molecule is an asymmetric top.
 Rotational symmetry number  1.
 Warning -- assumption of classical behavior for rotation
           may cause significant error
 Rotational temperatures (Kelvin)      0.05798     0.03272     0.02100
 Rotational constants (GHZ):           1.20815     0.68169     0.43750
 Zero-point vibrational energy     452795.4 (Joules/Mol)
                                  108.22069 (Kcal/Mol)
 Vibrational temperatures:    132.25   148.11   177.49   208.07   228.24
          (Kelvin)            251.07   345.04   388.85   428.91   494.14
                              566.68   569.48   683.91   734.00   787.49
                              798.82   909.38   965.34  1034.92  1057.02
                             1065.95  1085.55  1136.60  1277.11  1310.57
                             1343.77  1412.93  1470.16  1486.75  1533.10
                             1567.17  1626.07  1694.51  1704.52  1728.11
                             1756.16  1782.43  1887.75  1941.60  2015.87
                             2034.28  2105.77  2126.23  2143.31  2167.10
                             2175.06  2207.05  2346.99  2389.44  2465.04
                             2469.54  4454.13  4582.47  4626.91  4635.92
                             4649.68  4662.69  4668.60  5030.74  5240.72

 Zero-point correction=                           0.172461 (Hartree/Particle)
 Thermal correction to Energy=                    0.172461
 Thermal correction to Enthalpy=                  0.172461
 Thermal correction to Gibbs Free Energy=         0.172461
 Sum of electronic and zero-point Energies=           -607.829000
 Sum of electronic and thermal Energies=              -607.829000
 Sum of electronic and thermal Enthalpies=            -607.829000
 Sum of electronic and thermal Free Energies=         -607.829000

                     E (Thermal)             CV                S
                      KCal/Mol        Cal/Mol-Kelvin    Cal/Mol-Kelvin
 Total                  108.221              5.962            -27.609
 Electronic               0.000              0.000              0.000
 Translational            0.000              2.981            -21.202
 Rotational               0.000              2.981             -6.406
 Vibrational            108.221              0.000              0.000

                           ! Non-Optimized Parameters !
 Normal termination of Gaussian 16 at Mon Oct 14 01:43:48 2019.
