 Gaussian 16, Revision A.03,
 Gaussian 16:  ES64L-G16RevA.03 25-Dec-2016

 --------------------------------------------------------------
 #P opt freq b3lyp/6-31g(d) geom=connectivity temperature=0.001
 --------------------------------------------------------------

 -------------------
 Title Card Required
 -------------------
 Symbolic Z-matrix:
 Charge =  0 Multiplicity = 1

 SCF Done:  E(RB3LYP) =  -323.442664297     A.U. after   14 cycles
 SCF Done:  E(RB3LYP) =  -323.446730939     A.U. after   12 cycles
 SCF Done:  E(RB3LYP) =  -323.447151847     A.U. after   10 cycles
 SCF Done:  E(RB3LYP) =  -323.447171671     A.U. after   10 cycles
 Optimization completed.
    -- Stationary point found.
 Normal termination of Gaussian 16 at Mon Oct 14 02:09:43 2019.

 --------------------------------------------------------------------
 #P Geom=AllCheck Guess=TCheck SCRF=Check GenChk RB3LYP/6-31G(d) Freq
 --------------------------------------------------------------------

 Structure from the checkpoint file:  "3.chk"
 -------------------
 Title Card Required
 -------------------
 Charge =  0 Multiplicity = 1

                         Standard orientation:
 ---------------------------------------------------------------------
 Center     Atomic      Atomic             Coordinates (Angstroms)
 Number     Number       Type             X           Y           Z
 ---------------------------------------------------------------------
      1          8           0       -0.000021    2.261912   -0.000000
      2          7           0        0.000000    0.987266   -0.000000
      3          6           0        1.180206    0.283604   -0.000000
      4          6           0        1.194449   -1.099381    0.000000
      5          6           0        0.000016   -1.822460    0.000000
      6          6           0       -1.194440   -1.099391    0.000000
      7          6           0       -1.180213    0.283583   -0.000000
      8          1           0        2.058390    0.915080   -0.000000
      9          1           0        2.156379   -1.602638    0.000000
     10          1           0        0.000012   -2.906737    0.000000
     11          1           0       -2.156354   -1.602678    0.000000
     12          1           0       -2.058376    0.915089   -0.000000
 ---------------------------------------------------------------------

 SCF Done:  E(RB3LYP) =  -323.447171671     A.U. after    1 cycles

 The electronic state is 1-A'.
 Alpha  occ. eigenvalues --  -19.11468 -14.48204 -10.23645 -10.23644 -10.21950
 Alpha  occ. eigenvalues --  -10.21948 -10.21212  -1.10401  -0.89876  -0.79405
 Alpha  occ. eigenvalues --   -0.78943  -0.66791  -0.64001  -0.53882  -0.51295
 Alpha  occ. eigenvalues --   -0.49200  -0.46793  -0.45235  -0.45172  -0.39055
 Alpha  occ. eigenvalues --   -0.38799  -0.34463  -0.28309  -0.24365  -0.21278
 Alpha virt. eigenvalues --   -0.03753  -0.02596   0.07735   0.12126   0.12592
 Alpha virt. eigenvalues --    0.14137   0.16407   0.17263   0.19664   0.25403
 Alpha virt. eigenvalues --    0.26255   0.29704   0.32883   0.42797   0.45184

 Mulliken charges:
               1
     1  O   -0.516609
     2  N    0.000208
     3  C    0.072050
     4  C   -0.169730
     5  C   -0.108967
     6  C   -0.169732
     7  C    0.072050
     8  H    0.180624
     9  H    0.155695
    10  H    0.148090
    11  H    0.155696
    12  H    0.180625
 Sum of Mulliken charges =  -0.00000

 Dipole moment (field-independent basis, Debye):
    X=              0.0000    Y=             -3.9334    Z=             -0.0000  Tot=              3.9334
 Quadrupole moment (field-independent basis, Debye-Ang):
   XX=            -32.7515   YY=            -45.2432   ZZ=            -42.0458
   XY=              0.0001   XZ=              0.0000   YZ=              0.0000

  Exact polarizability:  67.860  -0.000  87.694   0.000  -0.000  22.264
 Approx polarizability: 112.048  -0.001 185.341  -0.000  -0.000  33.444

                      1                      2                      3
                     A"                     A"                     A'
 Frequencies --    217.9793               428.5505               485.1120
 Red. masses --      5.2247                 3.1035                 6.3946
 Frc consts  --      0.1463                 0.3358                 0.8866
 IR Inten    --      3.6578                 0.0000                 7.3256

                      4                      5                      6
                     A"                     A'                     A'
 Frequencies --    522.6479               552.9234               650.6029
 Red. masses --      2.9032                 8.0052                 6.4455
 Frc consts  --      0.4673                 1.4420                 1.6075
 IR Inten    --      5.3897                 5.1610                 0.4877

                      7                      8                      9
                     A"                     A"                     A"
 Frequencies --    690.3671               772.7680               830.0418
 Red. masses --      2.1433                 1.6783                 1.2539
 Frc consts  --      0.6018                 0.5905                 0.5090
 IR Inten    --     17.1019                56.5732                 0.0000

                     10                     11                     12
                     A'                     A"                     A"
 Frequencies --    862.1448               889.7879               955.6718
 Red. masses --      5.5714                 1.4892                 1.3195
 Frc consts  --      2.4399                 0.6947                 0.7100
 IR Inten    --      9.5443                11.5205                 0.0000

                     13                     14                     15
                     A"                     A'                     A'
 Frequencies --    976.3753              1031.7221              1066.6338
 Red. masses --      1.2314                 6.2864                 2.0241
 Frc consts  --      0.6916                 3.9426                 1.3568
 IR Inten    --      0.0113                27.8490                 0.0676

                     16                     17                     18
                     A'                     A'                     A'
 Frequencies --   1098.0325              1178.6594              1204.0073
 Red. masses --      1.5991                 1.0852                 1.1369
 Frc consts  --      1.1359                 0.8883                 0.9710
 IR Inten    --      3.8475                 0.8414                19.4319

                     19                     20                     21
                     A'                     A'                     A'
 Frequencies --   1276.7508              1363.8779              1372.0296
 Red. masses --      5.9673                 1.2782                 5.3608
 Frc consts  --      5.7311                 1.4009                 5.9458
 IR Inten    --      4.6972                 0.0078               123.7355

                     22                     23                     24
                     A'                     A'                     A'
 Frequencies --   1515.7100              1524.1997              1595.6425
 Red. masses --      2.3169                 2.6587                 5.5915
 Frc consts  --      3.1361                 3.6392                 8.3879
 IR Inten    --    111.2371                 2.7148                 6.3037

                     25                     26                     27
                     A'                     A'                     A'
 Frequencies --   1678.8777              3208.3587              3214.0285
 Red. masses --      5.4117                 1.0871                 1.0912
 Frc consts  --      8.9872                 6.5932                 6.6414
 IR Inten    --     34.7052                 0.4109                10.0950

                     28                     29                     30
                     A'                     A'                     A'
 Frequencies --   3232.2492              3269.8630              3271.0985
 Red. masses --      1.0962                 1.0934                 1.0949
 Frc consts  --      6.7475                 6.8881                 6.9024
 IR Inten    --      6.7466                 0.0062                 0.0002

 - Thermochemistry -
 -------------------
 Temperature     0.001 Kelvin.  Pressure   1.00000 Atm.
 Atom     1 has atomic number  8 and mass  15.99491

 Molecular mass:    95.03711 amu.
 Principal axes and moments of inertia in atomic units:
                           1         2         3
     Eigenvalues --   305.62249 648.03369 953.65618
           X           -0.00001   1.00000   0.00000
           Y            1.00000   0.00001   0.00000
           Z           -0.00000  -0.00000   1.00000
 This molecule is an asymmetric top.
 Rotational symmetry number  1.
 Rotational temperatures (Kelvin)      0.28340     0.13366     0.09082
 Rotational constants (GHZ):           5.90513     2.78495     1.89244
 Zero-point vibrational energy     244855.9 (Joules/Mol)
                                   58.52197 (Kcal/Mol)
 Vibrational temperatures:    313.62   616.59   697.97   751.97   795.53
          (Kelvin)            936.07   993.28  1111.84  1194.24  1240.43
                             1280.21  1375.00  1404.79  1484.42  1534.65
                             1579.82  1695.83  1732.30  1836.96  1962.32
                             1974.04  2180.77  2192.98  2295.77  2415.53
                             4616.11  4624.27  4650.49  4704.60  4706.38

 Zero-point correction=                           0.093261 (Hartree/Particle)
 Thermal correction to Energy=                    0.093261
 Thermal correction to Enthalpy=                  0.093261
 Thermal correction to Gibbs Free Energy=         0.093261
 Sum of electronic and zero-point Energies=           -323.353911
 Sum of electronic and thermal Energies=              -323.353911
 Sum of electronic and thermal Enthalpies=            -323.353911
 Sum of electronic and thermal Free Energies=         -323.353911

                     E (Thermal)             CV                S
                      KCal/Mol        Cal/Mol-Kelvin    Cal/Mol-Kelvin
 Total                   58.522              5.962            -33.894
 Electronic               0.000              0.000              0.000
 Translational            0.000              2.981            -23.057
 Rotational               0.000              2.981            -10.837
 Vibrational             58.522              0.000              0.000

 Optimization completed.
    -- Stationary point found.
 Normal termination of Gaussian 16 at Mon Oct 14 02:09:51 2019.
