 Gaussian 16, Revision A.03,
 Gaussian 16:  ES64L-G16RevA.03 25-Dec-2016

 --------------------------------------------------------------
 #P opt freq b3lyp/6-31g(d) geom=connectivity temperature=0.001
 --------------------------------------------------------------

 -------------------
 Title Card Required
 -------------------
 Symbolic Z-matrix:
 Charge =  0 Multiplicity = 1

 SCF Done:  E(RB3LYP) =  -864.214208507     A.U. after   15 cycles
 SCF Done:  E(RB3LYP) =  -864.255644819     A.U. after   12 cycles
 SCF Done:  E(RB3LYP) =  -864.280162445     A.U. after   12 cycles
 SCF Done:  E(RB3LYP) =  -864.285214504     A.U. after   11 cycles
 SCF Done:  E(RB3LYP) =  -864.286875342     A.U. after   11 cycles
 SCF Done:  E(RB3LYP) =  -864.287439816     A.U. after   12 cycles
 SCF Done:  E(RB3LYP) =  -864.287519145     A.U. after   10 cycles
 SCF Done:  E(RB3LYP) =  -864.287524087     A.U. after    9 cycles
 SCF Done:  E(RB3LYP) =  -864.287524666     A.U. after    8 cycles
 SCF Done:  E(RB3LYP) =  -864.287524692     A.U. after    6 cycles
 Optimization completed.
    -- Stationary point found.
 Normal termination of Gaussian 16 at Mon Oct 14 01:45:41 2019.

 --------------------------------------------------------------------
 #P Geom=AllCheck Guess=TCheck SCRF=Check GenChk RB3LYP/6-31G(d) Freq
 --------------------------------------------------------------------

 Structure from the checkpoint file:  "30.chk"
 -------------------
 Title Card Required
 -------------------
 Charge =  0 Multiplicity = 1

                         Standard orientation:
 ---------------------------------------------------------------------
 Center     Atomic      Atomic             Coordinates (Angstroms)
 Number     Number       Type             X           Y           Z
 ---------------------------------------------------------------------
      1          8           0        0.051291    1.077974    1.566005
      2         16           0       -0.039139    1.082636    0.093774
      3          6           0        1.620220    0.729931   -0.576651
      4          6           0        2.358153   -0.420817    0.107225
      5          6           0        3.801139   -0.561398   -0.401639
      6          6           0        4.554896   -1.710767    0.274740
      7          6           0       -1.058307   -0.343331   -0.412055
      8          6           0       -2.498745   -0.175047    0.079688
      9          6           0       -3.388498   -1.357403   -0.329914
     10          6           0       -4.832492   -1.199918    0.157155
     11          8           0       -0.545683    2.270919   -0.616798
     12          1           0        1.494896    0.576762   -1.654184
     13          1           0        2.143884    1.682741   -0.436623
     14          1           0        2.357234   -0.246596    1.189300
     15          1           0        1.823428   -1.365440   -0.061776
     16          1           0        3.793435   -0.715795   -1.489655
     17          1           0        4.337311    0.381917   -0.229598
     18          1           0        4.061369   -2.672723    0.090189
     19          1           0        5.581339   -1.785543   -0.100620
     20          1           0        4.605277   -1.566162    1.360423
     21          1           0       -1.007263   -0.393298   -1.505143
     22          1           0       -0.591135   -1.238945    0.010483
     23          1           0       -2.491135   -0.072203    1.171304
     24          1           0       -2.905716    0.758654   -0.326060
     25          1           0       -3.379027   -1.460221   -1.424092
     26          1           0       -2.965301   -2.289396    0.070399
     27          1           0       -5.448124   -2.053879   -0.146334
     28          1           0       -4.875531   -1.127661    1.250384
     29          1           0       -5.291787   -0.293047   -0.253731
 ---------------------------------------------------------------------

 SCF Done:  E(RB3LYP) =  -864.287524692     A.U. after    1 cycles

 The electronic state is 1-A.
 Alpha  occ. eigenvalues --  -89.08060 -19.12923 -19.12822 -10.22599 -10.22574
 Alpha  occ. eigenvalues --  -10.20384 -10.19783 -10.19744 -10.19381 -10.18482
 Alpha  occ. eigenvalues --  -10.18019  -8.11071  -6.07486  -6.07414  -6.07390
 Alpha  occ. eigenvalues --   -1.08493  -0.98202  -0.82529  -0.81481  -0.76831
 Alpha  occ. eigenvalues --   -0.74715  -0.68316  -0.65390  -0.60025  -0.59478
 Alpha  occ. eigenvalues --   -0.57745  -0.50446  -0.49334  -0.48704  -0.46759
 Alpha  occ. eigenvalues --   -0.45519  -0.43928  -0.43740  -0.42994  -0.42041
 Alpha  occ. eigenvalues --   -0.39890  -0.39743  -0.37669  -0.37104  -0.36426
 Alpha  occ. eigenvalues --   -0.35277  -0.35126  -0.34653  -0.34245  -0.33799
 Alpha  occ. eigenvalues --   -0.31042  -0.30202  -0.28573  -0.27350
 Alpha virt. eigenvalues --    0.06219   0.06716   0.07704   0.09278   0.09310
 Alpha virt. eigenvalues --    0.09702   0.09982   0.11247   0.11674   0.12962
 Alpha virt. eigenvalues --    0.14071   0.14625   0.15210   0.16163   0.16828

 Mulliken charges:
               1
     1  O   -0.553045
     2  S    1.121519
     3  C   -0.483284
     4  C   -0.269157
     5  C   -0.254738
     6  C   -0.443189
     7  C   -0.467292
     8  C   -0.270811
     9  C   -0.253359
    10  C   -0.442941
    11  O   -0.546895
    12  H    0.183593
    13  H    0.207328
    14  H    0.180612
    15  H    0.139649
    16  H    0.135670
    17  H    0.142796
    18  H    0.144325
    19  H    0.149907
    20  H    0.151060
    21  H    0.180455
    22  H    0.183713
    23  H    0.173445
    24  H    0.174222
    25  H    0.135368
    26  H    0.134884
    27  H    0.146704
    28  H    0.149611
    29  H    0.149851
 Sum of Mulliken charges =  -0.00000

 Dipole moment (field-independent basis, Debye):
    X=              1.2631    Y=             -3.9769    Z=             -2.1170  Tot=              4.6789
 Quadrupole moment (field-independent basis, Debye-Ang):
   XX=            -67.6441   YY=            -84.7515   ZZ=            -80.5682
   XY=              3.7668   XZ=             -0.9764   YZ=             -0.4649

  Exact polarizability: 135.376   0.334 101.301  -0.154  -0.876  93.548
 Approx polarizability: 151.091  -1.604 148.922   2.417  -3.532 152.494

                      1                      2                      3
                      A                      A                      A
 Frequencies --     36.2714                41.7801                60.1249
 Red. masses --      2.9020                 2.6393                 1.6184
 Frc consts  --      0.0022                 0.0027                 0.0034
 IR Inten    --      0.0296                 0.9872                 0.0632

                      4                      5                      6
                      A                      A                      A
 Frequencies --     78.7967                97.3457               118.3930
 Red. masses --      2.0846                 3.5393                 3.2887
 Frc consts  --      0.0076                 0.0198                 0.0272
 IR Inten    --      1.3289                 2.1176                 2.4669

                      7                      8                      9
                      A                      A                      A
 Frequencies --    128.3060               140.3748               216.8434
 Red. masses --      2.4858                 2.4357                 2.6839
 Frc consts  --      0.0241                 0.0283                 0.0744
 IR Inten    --      0.9655                 2.5717                 0.2467

                     10                     11                     12
                      A                      A                      A
 Frequencies --    246.1402               247.2189               257.0141
 Red. masses --      1.1981                 1.1741                 3.8517
 Frc consts  --      0.0428                 0.0423                 0.1499
 IR Inten    --      0.0047                 0.1633                 2.7133

                     13                     14                     15
                      A                      A                      A
 Frequencies --    268.1743               285.7014               332.5047
 Red. masses --      3.5402                 4.2883                 3.2249
 Frc consts  --      0.1500                 0.2062                 0.2101
 IR Inten    --      0.1731                 3.8152                 0.9596

                     16                     17                     18
                      A                      A                      A
 Frequencies --    403.0666               441.4823               494.4024
 Red. masses --      3.0503                 3.3188                 6.8907
 Frc consts  --      0.2920                 0.3811                 0.9924
 IR Inten    --     10.7771                 4.4702                27.8371

                     19                     20                     21
                      A                      A                      A
 Frequencies --    534.5834               698.9393               740.6029
 Red. masses --      5.5263                 3.6113                 1.2553
 Frc consts  --      0.9305                 1.0394                 0.4057
 IR Inten    --     43.8609                 3.4180                 6.0614

                     22                     23                     24
                      A                      A                      A
 Frequencies --    750.5762               763.8368               804.8051
 Red. masses --      1.0751                 2.2464                 1.2772
 Frc consts  --      0.3569                 0.7722                 0.4874
 IR Inten    --      4.6767                45.0786                10.4354

                     25                     26                     27
                      A                      A                      A
 Frequencies --    805.4712               911.7924               911.9056
 Red. masses --      1.3819                 1.8611                 1.8055
 Frc consts  --      0.5282                 0.9116                 0.8846
 IR Inten    --     21.9512                 2.6475                 2.2659

                     28                     29                     30
                      A                      A                      A
 Frequencies --    936.1462               940.5325              1023.2123
 Red. masses --      1.2905                 1.2857                 3.6421
 Frc consts  --      0.6663                 0.6701                 2.2467
 IR Inten    --      8.6232                 6.4370                 4.0762

                     31                     32                     33
                      A                      A                      A
 Frequencies --   1028.7186              1064.8478              1066.7900
 Red. masses --      3.4502                 2.4535                 2.4534
 Frc consts  --      2.1512                 1.6391                 1.6451
 IR Inten    --      0.3232                 5.1647                 1.4879

                     34                     35                     36
                      A                      A                      A
 Frequencies --   1084.9969              1095.0493              1112.9599
 Red. masses --      1.6794                 1.3962                 2.2793
 Frc consts  --      1.1648                 0.9865                 1.6634
 IR Inten    --     35.6714                16.8976                65.8470

                     37                     38                     39
                      A                      A                      A
 Frequencies --   1129.0317              1141.3570              1240.7660
 Red. masses --      2.1078                 2.3227                 1.5325
 Frc consts  --      1.5830                 1.7827                 1.3901
 IR Inten    --      2.5988                43.2327                 1.3472

                     40                     41                     42
                      A                      A                      A
 Frequencies --   1244.2201              1266.1024              1267.7297
 Red. masses --      1.5481                 1.3631                 1.4142
 Frc consts  --      1.4121                 1.2874                 1.3391
 IR Inten    --      5.3081                 8.8566                13.2998

                     43                     44                     45
                      A                      A                      A
 Frequencies --   1299.3438              1322.5694              1330.5524
 Red. masses --      2.8627                 1.1914                 1.3154
 Frc consts  --      2.8476                 1.2278                 1.3720
 IR Inten    --    105.6451                 1.5479                24.3664

                     46                     47                     48
                      A                      A                      A
 Frequencies --   1349.4791              1351.2789              1360.1894
 Red. masses --      1.0900                 1.1249                 1.3215
 Frc consts  --      1.1695                 1.2102                 1.4405
 IR Inten    --      0.2595                 1.9750                 5.5298

                     49                     50                     51
                      A                      A                      A
 Frequencies --   1364.1033              1414.9077              1415.8593
 Red. masses --      1.4172                 1.5149                 1.5061
 Frc consts  --      1.5537                 1.7868                 1.7789
 IR Inten    --     18.0750                 0.9077                 3.7824

                     52                     53                     54
                      A                      A                      A
 Frequencies --   1442.6885              1442.8528              1483.8457
 Red. masses --      1.2392                 1.2397                 1.0907
 Frc consts  --      1.5197                 1.5206                 1.4150
 IR Inten    --      1.2410                 1.4411                 5.2649

                     55                     56                     57
                      A                      A                      A
 Frequencies --   1486.8132              1518.2245              1519.3125
 Red. masses --      1.0941                 1.0641                 1.0609
 Frc consts  --      1.4250                 1.4451                 1.4428
 IR Inten    --      1.9176                 1.3923                 2.4637

                     58                     59                     60
                      A                      A                      A
 Frequencies --   1527.2231              1529.1548              1529.4327
 Red. masses --      1.0691                 1.0711                 1.0406
 Frc consts  --      1.4692                 1.4757                 1.4341
 IR Inten    --      0.3339                 0.1713                 6.4453

                     61                     62                     63
                      A                      A                      A
 Frequencies --   1529.7727              1541.0304              1542.0846
 Red. masses --      1.0408                 1.0853                 1.0858
 Frc consts  --      1.4350                 1.5185                 1.5213
 IR Inten    --      6.7922                 5.0792                 5.4272

                     64                     65                     66
                      A                      A                      A
 Frequencies --   3027.1910              3030.2404              3041.0734
 Red. masses --      1.0594                 1.0597                 1.0639
 Frc consts  --      5.7199                 5.7329                 5.7970
 IR Inten    --     23.2480                16.4002                17.3939

                     67                     68                     69
                      A                      A                      A
 Frequencies --   3046.4614              3046.7434              3056.2302
 Red. masses --      1.0403                 1.0357                 1.1031
 Frc consts  --      5.6887                 5.6646                 6.0707
 IR Inten    --     35.1539                26.1470                14.8458

                     70                     71                     72
                      A                      A                      A
 Frequencies --   3060.5435              3061.5356              3071.1544
 Red. masses --      1.0603                 1.0955                 1.0592
 Frc consts  --      5.8519                 6.0500                 5.8863
 IR Inten    --     11.5041                12.4234                12.1962

                     73                     74                     75
                      A                      A                      A
 Frequencies --   3073.2983              3097.1686              3102.2748
 Red. masses --      1.0574                 1.0993                 1.1050
 Frc consts  --      5.8843                 6.2130                 6.2660
 IR Inten    --     15.2477                 2.6566                 0.3458

                     76                     77                     78
                      A                      A                      A
 Frequencies --   3112.2340              3114.7105              3117.5247
 Red. masses --      1.1031                 1.1035                 1.1022
 Frc consts  --      6.2952                 6.3077                 6.3117
 IR Inten    --     47.0338                44.3865                36.5266

                     79                     80                     81
                      A                      A                      A
 Frequencies --   3118.6231              3127.5326              3133.5879
 Red. masses --      1.1022                 1.1060                 1.1079
 Frc consts  --      6.3157                 6.3739                 6.4096
 IR Inten    --     35.7941                16.1328                21.7985

 - Thermochemistry -
 -------------------
 Temperature     0.001 Kelvin.  Pressure   1.00000 Atm.
 Atom     1 has atomic number  8 and mass  15.99491

 Molecular mass:   178.10275 amu.
 Principal axes and moments of inertia in atomic units:
                           1         2         3
     Eigenvalues --  1186.936574790.107045460.93451
           X            1.00000   0.00124  -0.00094
           Y           -0.00125   0.99995  -0.00944
           Z            0.00093   0.00944   0.99996
 This molecule is an asymmetric top.
 Rotational symmetry number  1.
 Warning -- assumption of classical behavior for rotation
           may cause significant error
 Rotational temperatures (Kelvin)      0.07297     0.01808     0.01586
 Rotational constants (GHZ):           1.52050     0.37676     0.33048
 Zero-point vibrational energy     677073.0 (Joules/Mol)
                                  161.82432 (Kcal/Mol)
 Vibrational temperatures:     52.19    60.11    86.51   113.37   140.06
          (Kelvin)            170.34   184.60   201.97   311.99   354.14
                              355.69   369.79   385.84   411.06   478.40
                              579.92   635.19   711.33   769.15  1005.62
                             1065.56  1079.91  1098.99  1157.93  1158.89
                             1311.87  1312.03  1346.91  1353.22  1472.17
                             1480.10  1532.08  1534.87  1561.07  1575.53
                             1601.30  1624.42  1642.16  1785.19  1790.16
                             1821.64  1823.98  1869.47  1902.88  1914.37
                             1941.60  1944.19  1957.01  1962.64  2035.74
                             2037.11  2075.71  2075.94  2134.92  2139.19
                             2184.39  2185.95  2197.33  2200.11  2200.51
                             2201.00  2217.20  2218.72  4355.45  4359.84
                             4375.43  4383.18  4383.58  4397.23  4403.44
                             4404.87  4418.71  4421.79  4456.13  4463.48
                             4477.81  4481.37  4485.42  4487.00  4499.82
                             4508.53

 Zero-point correction=                           0.257883 (Hartree/Particle)
 Thermal correction to Energy=                    0.257883
 Thermal correction to Enthalpy=                  0.257883
 Thermal correction to Gibbs Free Energy=         0.257884
 Sum of electronic and zero-point Energies=           -864.029641
 Sum of electronic and thermal Energies=              -864.029641
 Sum of electronic and thermal Enthalpies=            -864.029641
 Sum of electronic and thermal Free Energies=         -864.029641

                     E (Thermal)             CV                S
                      KCal/Mol        Cal/Mol-Kelvin    Cal/Mol-Kelvin
 Total                  161.824              5.962            -26.952
 Electronic               0.000              0.000              0.000
 Translational            0.000              2.981            -21.185
 Rotational               0.000              2.981             -5.767
 Vibrational            161.824              0.000              0.000

                           ! Non-Optimized Parameters !
 Normal termination of Gaussian 16 at Mon Oct 14 01:46:24 2019.
