 Gaussian 16, Revision A.03,
 Gaussian 16:  ES64L-G16RevA.03 25-Dec-2016

 --------------------------------------------------------------
 #P opt freq b3lyp/6-31g(d) geom=connectivity temperature=0.001
 --------------------------------------------------------------

 -------------------
 Title Card Required
 -------------------
 Symbolic Z-matrix:
 Charge =  1 Multiplicity = 1

 SCF Done:  E(RB3LYP) =  -864.551853122     A.U. after   15 cycles
 SCF Done:  E(RB3LYP) =  -864.588761750     A.U. after   13 cycles
 SCF Done:  E(RB3LYP) =  -864.608681086     A.U. after   13 cycles
 SCF Done:  E(RB3LYP) =  -864.613611879     A.U. after   12 cycles
 SCF Done:  E(RB3LYP) =  -864.615146232     A.U. after   11 cycles
 SCF Done:  E(RB3LYP) =  -864.615794868     A.U. after   11 cycles
 SCF Done:  E(RB3LYP) =  -864.615817111     A.U. after   10 cycles
 SCF Done:  E(RB3LYP) =  -864.615821835     A.U. after    8 cycles
 SCF Done:  E(RB3LYP) =  -864.615826913     A.U. after    9 cycles
 SCF Done:  E(RB3LYP) =  -864.615832773     A.U. after   10 cycles
 SCF Done:  E(RB3LYP) =  -864.621912678     A.U. after   13 cycles
 SCF Done:  E(RB3LYP) =  -864.623139924     A.U. after   12 cycles
 SCF Done:  E(RB3LYP) =  -864.624019322     A.U. after   13 cycles
 SCF Done:  E(RB3LYP) =  -864.624027561     A.U. after   12 cycles
 SCF Done:  E(RB3LYP) =  -864.624369468     A.U. after   11 cycles
 SCF Done:  E(RB3LYP) =  -864.624420436     A.U. after   10 cycles
 SCF Done:  E(RB3LYP) =  -864.624424243     A.U. after    9 cycles
 SCF Done:  E(RB3LYP) =  -864.624424651     A.U. after    8 cycles
 SCF Done:  E(RB3LYP) =  -864.624424730     A.U. after    7 cycles
 Optimization completed.
    -- Stationary point found.
 Normal termination of Gaussian 16 at Mon Oct 14 01:47:51 2019.

 --------------------------------------------------------------------
 #P Geom=AllCheck Guess=TCheck SCRF=Check GenChk RB3LYP/6-31G(d) Freq
 --------------------------------------------------------------------

 Structure from the checkpoint file:  "30_p.chk"
 -------------------
 Title Card Required
 -------------------
 Charge =  1 Multiplicity = 1

                         Standard orientation:
 ---------------------------------------------------------------------
 Center     Atomic      Atomic             Coordinates (Angstroms)
 Number     Number       Type             X           Y           Z
 ---------------------------------------------------------------------
      1          8           0        0.011136    1.094704    1.556736
      2         16           0       -0.038093    1.056768   -0.061584
      3          6           0        1.681033    0.747274   -0.569788
      4          6           0        2.354378   -0.462881    0.085565
      5          6           0        3.827859   -0.554137   -0.359439
      6          6           0        4.538671   -1.759616    0.263783
      7          6           0       -1.054523   -0.422786   -0.306153
      8          6           0       -2.526264   -0.163689    0.044359
      9          6           0       -3.365944   -1.423816   -0.239723
     10          6           0       -4.844085   -1.207748    0.100837
     11          8           0       -0.579475    2.271165   -0.659617
     12          1           0        1.617405    0.667928   -1.661967
     13          1           0        2.182213    1.693937   -0.331841
     14          1           0        2.302207   -0.373507    1.176345
     15          1           0        1.833748   -1.385722   -0.197410
     16          1           0        3.874450   -0.619789   -1.454125
     17          1           0        4.347533    0.370750   -0.077596
     18          1           0        4.061980   -2.701406   -0.030518
     19          1           0        5.581423   -1.797906   -0.064531
     20          1           0        4.535075   -1.704086    1.358080
     21          1           0       -0.915234   -0.669804   -1.365713
     22          1           0       -0.597582   -1.204793    0.309238
     23          1           0       -2.608582    0.108449    1.102266
     24          1           0       -2.901719    0.678122   -0.547398
     25          1           0       -3.265399   -1.697117   -1.298288
     26          1           0       -2.969868   -2.265792    0.342956
     27          1           0       -5.419927   -2.113671   -0.110252
     28          1           0       -4.978158   -0.965989    1.161044
     29          1           0       -5.274540   -0.392266   -0.490751
     30          1           0        0.084423    2.021815    1.872215
 ---------------------------------------------------------------------

 SCF Done:  E(RB3LYP) =  -864.624424730     A.U. after    1 cycles

 The electronic state is 1-A.
 Alpha  occ. eigenvalues --  -89.29614 -19.40652 -19.35421 -10.41334 -10.41222
 Alpha  occ. eigenvalues --  -10.35591 -10.34697 -10.32220 -10.31628 -10.28987
 Alpha  occ. eigenvalues --  -10.28376  -8.33079  -6.29675  -6.29317  -6.29151
 Alpha  occ. eigenvalues --   -1.31600  -1.23114  -1.01946  -0.97286  -0.92346
 Alpha  occ. eigenvalues --   -0.88856  -0.84674  -0.80420  -0.79141  -0.72901
 Alpha  occ. eigenvalues --   -0.72233  -0.72169  -0.68773  -0.67259  -0.64711
 Alpha  occ. eigenvalues --   -0.64153  -0.61868  -0.58551  -0.57925  -0.57423
 Alpha  occ. eigenvalues --   -0.57199  -0.55097  -0.53689  -0.53148  -0.51956
 Alpha  occ. eigenvalues --   -0.51542  -0.50757  -0.50660  -0.47936  -0.47276
 Alpha  occ. eigenvalues --   -0.46586  -0.46306  -0.46001  -0.45662
 Alpha virt. eigenvalues --   -0.17453  -0.14397  -0.14059  -0.10162  -0.09448
 Alpha virt. eigenvalues --   -0.06915  -0.04929  -0.04032  -0.02791  -0.02329
 Alpha virt. eigenvalues --   -0.01773   0.01487   0.02038   0.02237   0.02829

 Mulliken charges:
               1
     1  O   -0.612702
     2  S    1.151465
     3  C   -0.495606
     4  C   -0.292073
     5  C   -0.270132
     6  C   -0.450979
     7  C   -0.496984
     8  C   -0.284446
     9  C   -0.270443
    10  C   -0.450731
    11  O   -0.431192
    12  H    0.250725
    13  H    0.253093
    14  H    0.190486
    15  H    0.172809
    16  H    0.163708
    17  H    0.164398
    18  H    0.161970
    19  H    0.185376
    20  H    0.163902
    21  H    0.241574
    22  H    0.249581
    23  H    0.188634
    24  H    0.200834
    25  H    0.160563
    26  H    0.159333
    27  H    0.181725
    28  H    0.163590
    29  H    0.166045
    30  H    0.485477
 Sum of Mulliken charges =   1.00000

 Dipole moment (field-independent basis, Debye):
    X=              1.6632    Y=              0.5264    Z=              0.5237  Tot=              1.8214
 Quadrupole moment (field-independent basis, Debye-Ang):
   XX=            -46.8860   YY=            -67.8960   ZZ=            -69.0303
   XY=              4.7155   XZ=             -0.9714   YZ=              6.6927

  Exact polarizability: 140.606   0.519 103.441  -0.374  -0.156  91.960
 Approx polarizability: 158.848  -2.000 153.677   1.669  -4.624 144.988

                      1                      2                      3
                      A                      A                      A
 Frequencies --     40.0485                41.5495                60.9952
 Red. masses --      3.0765                 2.1792                 1.6839
 Frc consts  --      0.0029                 0.0022                 0.0037
 IR Inten    --      0.5555                 0.9523                 0.0860

                      4                      5                      6
                      A                      A                      A
 Frequencies --     74.4445                90.3995               120.0199
 Red. masses --      2.2364                 3.5538                 3.3743
 Frc consts  --      0.0073                 0.0171                 0.0286
 IR Inten    --      0.6932                 0.7174                 0.6996

                      7                      8                      9
                      A                      A                      A
 Frequencies --    127.2402               136.7150               178.8357
 Red. masses --      2.4365                 2.4110                 1.5726
 Frc consts  --      0.0232                 0.0266                 0.0296
 IR Inten    --      0.2522                 1.8977                71.7613

                     10                     11                     12
                      A                      A                      A
 Frequencies --    211.2817               242.1127               245.4528
 Red. masses --      2.6315                 1.4977                 1.1434
 Frc consts  --      0.0692                 0.0517                 0.0406
 IR Inten    --     11.9447                 1.4676                 1.8625

                     13                     14                     15
                      A                      A                      A
 Frequencies --    249.1049               267.6531               282.6567
 Red. masses --      2.2871                 2.3777                 3.9223
 Frc consts  --      0.0836                 0.1004                 0.1846
 IR Inten    --      0.5586                 2.8535                29.3869

                     16                     17                     18
                      A                      A                      A
 Frequencies --    319.5649               390.1330               412.9847
 Red. masses --      2.5698                 3.2697                 3.6457
 Frc consts  --      0.1546                 0.2932                 0.3664
 IR Inten    --      5.0314                23.7222                28.9002

                     19                     20                     21
                      A                      A                      A
 Frequencies --    441.7372               496.2535               645.1367
 Red. masses --      3.3851                 4.9652                 5.1023
 Frc consts  --      0.3892                 0.7204                 1.2512
 IR Inten    --     13.6742                27.1315                 4.4667

                     22                     23                     24
                      A                      A                      A
 Frequencies --    721.5210               748.7058               752.4597
 Red. masses --      2.5603                 1.0948                 1.2617
 Frc consts  --      0.7853                 0.3616                 0.4209
 IR Inten    --      6.7623                 5.2103                16.2636

                     25                     26                     27
                      A                      A                      A
 Frequencies --    792.1778               797.4144               838.2985
 Red. masses --      1.3474                 1.3512                 4.0534
 Frc consts  --      0.4982                 0.5062                 1.6783
 IR Inten    --     18.9311                10.6322               116.1341

                     28                     29                     30
                      A                      A                      A
 Frequencies --    912.4062               913.5785               936.3576
 Red. masses --      1.8970                 1.8935                 1.2706
 Frc consts  --      0.9305                 0.9311                 0.6563
 IR Inten    --      2.0113                 3.5522                 4.8052

                     31                     32                     33
                      A                      A                      A
 Frequencies --    948.5942              1000.0866              1011.2095
 Red. masses --      1.3031                 3.8125                 3.5657
 Frc consts  --      0.6909                 2.2466                 2.1482
 IR Inten    --     19.1650                 2.1276                 0.7752

                     34                     35                     36
                      A                      A                      A
 Frequencies --   1049.2846              1049.9457              1096.1601
 Red. masses --      2.8737                 2.8330                 1.1756
 Frc consts  --      1.8641                 1.8401                 0.8322
 IR Inten    --      1.0990                 1.4955                19.6896

                     37                     38                     39
                      A                      A                      A
 Frequencies --   1116.0950              1127.7512              1139.9805
 Red. masses --      1.6101                 2.0603                 1.5940
 Frc consts  --      1.1817                 1.5439                 1.2205
 IR Inten    --     15.6352                31.7712                11.2627

                     40                     41                     42
                      A                      A                      A
 Frequencies --   1155.6547              1234.7631              1244.2084
 Red. masses --      1.4161                 1.6010                 1.4324
 Frc consts  --      1.1143                 1.4381                 1.3064
 IR Inten    --     28.7976                 9.1927                 1.9587

                     43                     44                     45
                      A                      A                      A
 Frequencies --   1256.8765              1273.8672              1302.8383
 Red. masses --      1.6766                 1.2571                 2.0497
 Frc consts  --      1.5605                 1.2019                 2.0498
 IR Inten    --     55.6548                 2.1926                77.8274

                     46                     47                     48
                      A                      A                      A
 Frequencies --   1321.0488              1325.9120              1350.6359
 Red. masses --      1.1863                 1.2229                 1.1286
 Frc consts  --      1.2198                 1.2667                 1.2130
 IR Inten    --      3.9983                 9.1155                 4.2876

                     49                     50                     51
                      A                      A                      A
 Frequencies --   1351.9954              1356.6427              1359.0030
 Red. masses --      1.0782                 1.2093                 1.3395
 Frc consts  --      1.1612                 1.3114                 1.4576
 IR Inten    --      3.7753                 1.4042                11.9921

                     52                     53                     54
                      A                      A                      A
 Frequencies --   1402.5507              1404.5038              1447.8099
 Red. masses --      1.4078                 1.4066                 1.2186
 Frc consts  --      1.6317                 1.6349                 1.5050
 IR Inten    --      3.3548                 8.5259                 1.2329

                     55                     56                     57
                      A                      A                      A
 Frequencies --   1448.2305              1464.3840              1469.7663
 Red. masses --      1.2202                 1.0839                 1.0836
 Frc consts  --      1.5079                 1.3694                 1.3792
 IR Inten    --      1.9667                10.2449                 7.6895

                     58                     59                     60
                      A                      A                      A
 Frequencies --   1517.4455              1517.9749              1524.1992
 Red. masses --      1.0604                 1.0592                 1.0685
 Frc consts  --      1.4386                 1.4381                 1.4625
 IR Inten    --      6.8881                 7.5760                 0.1909

                     61                     62                     63
                      A                      A                      A
 Frequencies --   1524.7321              1528.7230              1529.0805
 Red. masses --      1.0687                 1.0393                 1.0394
 Frc consts  --      1.4638                 1.4310                 1.4318
 IR Inten    --      0.1370                10.9968                11.7509

                     64                     65                     66
                      A                      A                      A
 Frequencies --   1538.4831              1538.7749              3042.0073
 Red. masses --      1.0885                 1.0872                 1.0592
 Frc consts  --      1.5179                 1.5167                 5.7748
 IR Inten    --      8.4976                 7.8576                13.8798

                     67                     68                     69
                      A                      A                      A
 Frequencies --   3044.4900              3057.3205              3059.1206
 Red. masses --      1.0592                 1.0422                 1.0366
 Frc consts  --      5.7844                 5.7397                 5.7156
 IR Inten    --      9.3947                 9.4469                16.2374

                     70                     71                     72
                      A                      A                      A
 Frequencies --   3061.4602              3070.5386              3071.0584
 Red. masses --      1.0552                 1.0591                 1.0590
 Frc consts  --      5.8268                 5.8834                 5.8846
 IR Inten    --     26.7828                 4.7811                 6.6235

                     73                     74                     75
                      A                      A                      A
 Frequencies --   3076.1129              3078.4511              3079.7563
 Red. masses --      1.1042                 1.1012                 1.0591
 Frc consts  --      6.1559                 6.1488                 5.9184
 IR Inten    --      8.6807                 5.2825                 5.6292

                     76                     77                     78
                      A                      A                      A
 Frequencies --   3108.7440              3119.6219              3125.6674
 Red. masses --      1.1058                 1.1065                 1.1048
 Frc consts  --      6.2967                 6.3445                 6.3596
 IR Inten    --      6.3595                 0.2074                29.4247

                     79                     80                     81
                      A                      A                      A
 Frequencies --   3128.8919              3131.3714              3139.8058
 Red. masses --      1.1047                 1.1065                 1.1020
 Frc consts  --      6.3717                 6.3927                 6.4011
 IR Inten    --     34.9133                 7.6918                13.3891

                     82                     83                     84
                      A                      A                      A
 Frequencies --   3140.8448              3145.0397              3630.3078
 Red. masses --      1.1017                 1.1076                 1.0665
 Frc consts  --      6.4032                 6.4550                 8.2809
 IR Inten    --     13.0338                 0.4052               237.3394

 - Thermochemistry -
 -------------------
 Temperature     0.001 Kelvin.  Pressure   1.00000 Atm.
 Atom     1 has atomic number  8 and mass  15.99491

 Molecular mass:   179.11058 amu.
 Principal axes and moments of inertia in atomic units:
                           1         2         3
     Eigenvalues --  1226.969544810.890035516.82896
           X            1.00000   0.00159  -0.00065
           Y           -0.00158   0.99996   0.00875
           Z            0.00066  -0.00875   0.99996
 This molecule is an asymmetric top.
 Rotational symmetry number  1.
 Warning -- assumption of classical behavior for rotation
           may cause significant error
 Rotational temperatures (Kelvin)      0.07059     0.01800     0.01570
 Rotational constants (GHZ):           1.47089     0.37514     0.32713
 Zero-point vibrational energy     704164.2 (Joules/Mol)
                                  168.29928 (Kcal/Mol)
 Vibrational temperatures:     57.62    59.78    87.76   107.11   130.06
          (Kelvin)            172.68   183.07   196.70   257.30   303.99
                              348.35   353.15   358.41   385.09   406.68
                              459.78   561.31   594.19   635.56   714.00
                              928.21  1038.11  1077.22  1082.62  1139.77
                             1147.30  1206.12  1312.75  1314.44  1347.21
                             1364.82  1438.90  1454.90  1509.69  1510.64
                             1577.13  1605.81  1622.58  1640.18  1662.73
                             1776.55  1790.14  1808.36  1832.81  1874.49
                             1900.69  1907.69  1943.26  1945.22  1951.91
                             1955.30  2017.96  2020.77  2083.08  2083.68
                             2106.92  2114.67  2183.27  2184.03  2192.98
                             2193.75  2199.49  2200.01  2213.53  2213.95
                             4376.77  4380.34  4398.80  4401.39  4404.76
                             4417.82  4418.57  4425.84  4429.20  4431.08
                             4472.79  4488.44  4497.14  4501.78  4505.34
                             4517.48  4518.98  4525.01  5223.20

 Zero-point correction=                           0.268202 (Hartree/Particle)
 Thermal correction to Energy=                    0.268202
 Thermal correction to Enthalpy=                  0.268202
 Thermal correction to Gibbs Free Energy=         0.268202
 Sum of electronic and zero-point Energies=           -864.356223
 Sum of electronic and thermal Energies=              -864.356223
 Sum of electronic and thermal Enthalpies=            -864.356223
 Sum of electronic and thermal Free Energies=         -864.356223

                     E (Thermal)             CV                S
                      KCal/Mol        Cal/Mol-Kelvin    Cal/Mol-Kelvin
 Total                  168.299              5.962            -26.888
 Electronic               0.000              0.000              0.000
 Translational            0.000              2.981            -21.168
 Rotational               0.000              2.981             -5.720
 Vibrational            168.299              0.000              0.000

                           ! Non-Optimized Parameters !
 Normal termination of Gaussian 16 at Mon Oct 14 01:48:38 2019.
