 Gaussian 16, Revision A.03,
 Gaussian 16:  ES64L-G16RevA.03 25-Dec-2016

 --------------------------------------------------------------
 #P opt freq b3lyp/6-31g(d) geom=connectivity temperature=0.001
 --------------------------------------------------------------

 -------------------
 Title Card Required
 -------------------
 Symbolic Z-matrix:
 Charge =  0 Multiplicity = 1

 SCF Done:  E(RB3LYP) =  -789.023273760     A.U. after   14 cycles
 SCF Done:  E(RB3LYP) =  -789.049652597     A.U. after   11 cycles
 SCF Done:  E(RB3LYP) =  -789.064774819     A.U. after   12 cycles
 SCF Done:  E(RB3LYP) =  -789.066647822     A.U. after   11 cycles
 SCF Done:  E(RB3LYP) =  -789.068539534     A.U. after   11 cycles
 SCF Done:  E(RB3LYP) =  -789.069162180     A.U. after   10 cycles
 SCF Done:  E(RB3LYP) =  -789.069551392     A.U. after   12 cycles
 SCF Done:  E(RB3LYP) =  -789.070168476     A.U. after   11 cycles
 SCF Done:  E(RB3LYP) =  -789.070295358     A.U. after    9 cycles
 SCF Done:  E(RB3LYP) =  -789.072278303     A.U. after   11 cycles
 SCF Done:  E(RB3LYP) =  -789.068768690     A.U. after   13 cycles
 SCF Done:  E(RB3LYP) =  -789.070775320     A.U. after   11 cycles
 SCF Done:  E(RB3LYP) =  -789.072927987     A.U. after   11 cycles
 SCF Done:  E(RB3LYP) =  -789.072230202     A.U. after   12 cycles
 SCF Done:  E(RB3LYP) =  -789.073459871     A.U. after   10 cycles
 SCF Done:  E(RB3LYP) =  -789.073464325     A.U. after    8 cycles
 SCF Done:  E(RB3LYP) =  -789.073464714     A.U. after    8 cycles
 SCF Done:  E(RB3LYP) =  -789.073464704     A.U. after    7 cycles
 Optimization completed.
    -- Stationary point found.
 Normal termination of Gaussian 16 at Mon Oct 14 01:46:49 2019.

 --------------------------------------------------------------------
 #P Geom=AllCheck Guess=TCheck SCRF=Check GenChk RB3LYP/6-31G(d) Freq
 --------------------------------------------------------------------

 Structure from the checkpoint file:  "31.chk"
 -------------------
 Title Card Required
 -------------------
 Charge =  0 Multiplicity = 1

                         Standard orientation:
 ---------------------------------------------------------------------
 Center     Atomic      Atomic             Coordinates (Angstroms)
 Number     Number       Type             X           Y           Z
 ---------------------------------------------------------------------
      1          6           0        5.252609   -0.055070    0.139676
      2          6           0        3.902968   -0.773386    0.239573
      3          6           0        2.724071    0.119889   -0.171810
      4          6           0        1.377748   -0.596389   -0.065232
      5         16           0        0.000001    0.565083   -0.478987
      6          6           0       -1.377753   -0.596382   -0.065274
      7          6           0       -2.724072    0.119921   -0.171740
      8          6           0       -3.902968   -0.773394    0.239563
      9          6           0       -5.252598   -0.055080    0.139661
     10          8           0       -0.000005    1.656504    0.575029
     11          1           0        5.450557    0.276203   -0.886966
     12          1           0        5.276771    0.831629    0.784284
     13          1           0        6.075775   -0.711678    0.442898
     14          1           0        3.918143   -1.673906   -0.390712
     15          1           0        3.748723   -1.123421    1.269742
     16          1           0        2.692655    1.012872    0.464609
     17          1           0        2.872592    0.472443   -1.202284
     18          1           0        1.306940   -1.443929   -0.758958
     19          1           0        1.204184   -0.957232    0.955938
     20          1           0       -1.306973   -1.443862   -0.759075
     21          1           0       -1.204181   -0.957325    0.955860
     22          1           0       -2.692649    1.012819    0.464799
     23          1           0       -2.872597    0.472607   -1.202169
     24          1           0       -3.918142   -1.673842   -0.390821
     25          1           0       -3.748755   -1.123524    1.269706
     26          1           0       -6.075767   -0.711719    0.442808
     27          1           0       -5.276760    0.831558    0.784351
     28          1           0       -5.450504    0.276284   -0.886964
 ---------------------------------------------------------------------

 SCF Done:  E(RB3LYP) =  -789.073464704     A.U. after    1 cycles

 The electronic state is 1-A.
 Alpha  occ. eigenvalues --  -88.97283 -19.09410 -10.21181 -10.21181 -10.19002
 Alpha  occ. eigenvalues --  -10.19002 -10.18819 -10.18819 -10.17683 -10.17683
 Alpha  occ. eigenvalues --   -8.02053  -5.98448  -5.98355  -5.97798  -0.98835
 Alpha  occ. eigenvalues --   -0.81482  -0.80403  -0.76300  -0.73398  -0.67897
 Alpha  occ. eigenvalues --   -0.63382  -0.59182  -0.58282  -0.58163  -0.48881
 Alpha  occ. eigenvalues --   -0.47961  -0.45683  -0.44286  -0.43968  -0.42474
 Alpha  occ. eigenvalues --   -0.41864  -0.41366  -0.38610  -0.37962  -0.37434
 Alpha  occ. eigenvalues --   -0.36138  -0.35489  -0.34148  -0.34055  -0.34026
 Alpha  occ. eigenvalues --   -0.33217  -0.33192  -0.32641  -0.25095  -0.21498
 Alpha virt. eigenvalues --    0.04298   0.05344   0.08040   0.08868   0.09393
 Alpha virt. eigenvalues --    0.10498   0.11310   0.12931   0.13683   0.14290
 Alpha virt. eigenvalues --    0.14995   0.15710   0.16351   0.17599   0.17837

 Mulliken charges:
               1
     1  C   -0.441867
     2  C   -0.249573
     3  C   -0.266792
     4  C   -0.457668
     5  S    0.762284
     6  C   -0.457672
     7  C   -0.266790
     8  C   -0.249573
     9  C   -0.441863
    10  O   -0.644922
    11  H    0.144397
    12  H    0.149471
    13  H    0.144955
    14  H    0.130643
    15  H    0.136846
    16  H    0.173582
    17  H    0.143617
    18  H    0.158694
    19  H    0.175015
    20  H    0.158695
    21  H    0.175012
    22  H    0.173582
    23  H    0.143618
    24  H    0.130642
    25  H    0.136846
    26  H    0.144955
    27  H    0.149470
    28  H    0.144397
 Sum of Mulliken charges =  -0.00000

 Dipole moment (field-independent basis, Debye):
    X=             -0.0000    Y=             -3.5245    Z=             -1.0708  Tot=              3.6836
 Quadrupole moment (field-independent basis, Debye-Ang):
   XX=            -65.1563   YY=            -76.9992   ZZ=            -71.8750
   XY=              0.0001   XZ=              0.0000   YZ=             -1.7624

  Exact polarizability: 146.805  -0.000  97.001   0.000   1.807  87.824
 Approx polarizability: 156.067  -0.000 156.523  -0.000   9.939 137.796

                      1                      2                      3
                      A                      A                      A
 Frequencies --     31.7932                54.4889                55.7793
 Red. masses --      3.1048                 1.7523                 4.0395
 Frc consts  --      0.0018                 0.0031                 0.0074
 IR Inten    --      0.1336                 0.6524                 0.1663

                      4                      5                      6
                      A                      A                      A
 Frequencies --     83.9373                87.5558               131.6170
 Red. masses --      2.4948                 2.0309                 2.4180
 Frc consts  --      0.0104                 0.0092                 0.0247
 IR Inten    --      2.2817                 2.7375                 2.8610

                      7                      8                      9
                      A                      A                      A
 Frequencies --    132.6298               143.7962               209.3319
 Red. masses --      2.2217                 2.7689                 3.6913
 Frc consts  --      0.0230                 0.0337                 0.0953
 IR Inten    --      0.0911                 0.8603                 0.0085

                     10                     11                     12
                      A                      A                      A
 Frequencies --    243.8005               246.8732               258.4319
 Red. masses --      1.4437                 1.2187                 2.8264
 Frc consts  --      0.0506                 0.0438                 0.1112
 IR Inten    --      2.0944                 0.1554                 0.0013

                     13                     14                     15
                      A                      A                      A
 Frequencies --    260.6567               361.8606               384.8467
 Red. masses --      2.1991                 3.1855                 3.0965
 Frc consts  --      0.0880                 0.2458                 0.2702
 IR Inten    --      2.5683                 6.3280                 6.0357

                     16                     17                     18
                      A                      A                      A
 Frequencies --    422.0368               450.4659               680.3615
 Red. masses --      5.0786                 2.9970                 3.7224
 Frc consts  --      0.5330                 0.3583                 1.0152
 IR Inten    --      7.6492                 1.5030                 9.7132

                     19                     20                     21
                      A                      A                      A
 Frequencies --    709.2189               744.6987               748.6729
 Red. masses --      4.6191                 1.0899                 1.0863
 Frc consts  --      1.3689                 0.3561                 0.3587
 IR Inten    --      4.8746                 0.3353                 8.8120

                     22                     23                     24
                      A                      A                      A
 Frequencies --    789.9383               804.9234               905.7685
 Red. masses --      1.2171                 1.2347                 1.8792
 Frc consts  --      0.4475                 0.4713                 0.9084
 IR Inten    --      0.7904                 1.9432                 0.5165

                     25                     26                     27
                      A                      A                      A
 Frequencies --    913.6220               925.0075               938.0963
 Red. masses --      1.8038                 1.2665                 1.3223
 Frc consts  --      0.8871                 0.6385                 0.6856
 IR Inten    --      1.7134                 0.1419                 6.3168

                     28                     29                     30
                      A                      A                      A
 Frequencies --   1019.7094              1034.0224              1052.7726
 Red. masses --      3.6150                 3.4148                 3.3539
 Frc consts  --      2.2147                 2.1512                 2.1901
 IR Inten    --      1.2457                 1.9038                73.5332

                     31                     32                     33
                      A                      A                      A
 Frequencies --   1066.4226              1074.5702              1074.9674
 Red. masses --      2.2923                 2.4976                 1.2045
 Frc consts  --      1.5360                 1.6992                 0.8200
 IR Inten    --      0.2117                 2.1168                 3.5455

                     34                     35                     36
                      A                      A                      A
 Frequencies --   1115.3262              1116.3385              1135.3139
 Red. masses --      1.6880                 1.8729                 2.2071
 Frc consts  --      1.2372                 1.3752                 1.6762
 IR Inten    --     18.2883                13.0502                 0.0454

                     37                     38                     39
                      A                      A                      A
 Frequencies --   1236.4459              1244.3363              1245.8610
 Red. masses --      1.4367                 1.4107                 1.4884
 Frc consts  --      1.2941                 1.2870                 1.3612
 IR Inten    --      2.4393                 3.8152                 0.4238

                     40                     41                     42
                      A                      A                      A
 Frequencies --   1265.2669              1321.6750              1328.4100
 Red. masses --      1.2894                 1.1991                 1.1934
 Frc consts  --      1.2162                 1.2341                 1.2408
 IR Inten    --      1.0627                 0.1000                 0.5672

                     43                     44                     45
                      A                      A                      A
 Frequencies --   1348.9521              1349.5447              1351.7042
 Red. masses --      1.0611                 1.3526                 1.0612
 Frc consts  --      1.1377                 1.4514                 1.1424
 IR Inten    --      1.4749                 0.5397                 0.8559

                     46                     47                     48
                      A                      A                      A
 Frequencies --   1359.5482              1414.0994              1417.1318
 Red. masses --      1.3519                 1.5186                 1.5179
 Frc consts  --      1.4722                 1.7892                 1.7960
 IR Inten    --      0.3213                 8.4734                 0.2673

                     49                     50                     51
                      A                      A                      A
 Frequencies --   1441.8512              1442.0224              1473.5758
 Red. masses --      1.2411                 1.2400                 1.0984
 Frc consts  --      1.5202                 1.5193                 1.4053
 IR Inten    --      0.3052                 1.7011                 1.3831

                     52                     53                     54
                      A                      A                      A
 Frequencies --   1484.6710              1518.0494              1518.3760
 Red. masses --      1.1041                 1.0633                 1.0635
 Frc consts  --      1.4339                 1.4437                 1.4446
 IR Inten    --      2.1855                 2.7375                 0.6358

                     55                     56                     57
                      A                      A                      A
 Frequencies --   1527.8793              1528.0352              1529.6746
 Red. masses --      1.0705                 1.0711                 1.0410
 Frc consts  --      1.4723                 1.4735                 1.4351
 IR Inten    --      0.1212                 0.1790                 0.0780

                     58                     59                     60
                      A                      A                      A
 Frequencies --   1529.6819              1541.3092              1541.3631
 Red. masses --      1.0410                 1.0844                 1.0845
 Frc consts  --      1.4352                 1.5178                 1.5181
 IR Inten    --     12.3569                 0.3119                 8.6881

                     61                     62                     63
                      A                      A                      A
 Frequencies --   3025.7186              3025.9540              3034.6555
 Red. masses --      1.0595                 1.0596                 1.0636
 Frc consts  --      5.7148                 5.7162                 5.7708
 IR Inten    --      0.1122                29.3144                 0.4738

                     64                     65                     66
                      A                      A                      A
 Frequencies --   3035.2626              3043.4322              3045.1043
 Red. masses --      1.0647                 1.0575                 1.0392
 Frc consts  --      5.7793                 5.7713                 5.6774
 IR Inten    --     28.4986                 0.1081                57.4522

                     67                     68                     69
                      A                      A                      A
 Frequencies --   3045.1604              3048.6934              3056.1148
 Red. masses --      1.0372                 1.0602                 1.0968
 Frc consts  --      5.6665                 5.8059                 6.0358
 IR Inten    --     14.4672                43.9424                 5.6028

                     70                     71                     72
                      A                      A                      A
 Frequencies --   3056.3542              3085.1677              3086.4212
 Red. masses --      1.0952                 1.1010                 1.1010
 Frc consts  --      6.0279                 6.1741                 6.1796
 IR Inten    --     35.2124                 0.2183                 7.4734

                     73                     74                     75
                      A                      A                      A
 Frequencies --   3105.9415              3109.4812              3112.1191
 Red. masses --      1.1075                 1.1052                 1.1034
 Frc consts  --      6.2947                 6.2959                 6.2966
 IR Inten    --      0.0181                 9.6345                 0.6306

                     76                     77                     78
                      A                      A                      A
 Frequencies --   3113.6275              3115.4841              3115.6303
 Red. masses --      1.1049                 1.1023                 1.1025
 Frc consts  --      6.3110                 6.3039                 6.3054
 IR Inten    --    132.3201                23.8715                64.8467

 - Thermochemistry -
 -------------------
 Temperature     0.001 Kelvin.  Pressure   1.00000 Atm.
 Atom     1 has atomic number  6 and mass  12.00000

 Molecular mass:   162.10784 amu.
 Principal axes and moments of inertia in atomic units:
                           1         2         3
     Eigenvalues --   445.919265596.126445839.37725
           X            1.00000   0.00000   0.00000
           Y           -0.00000   0.99983  -0.01822
           Z           -0.00000   0.01822   0.99983
 This molecule is an asymmetric top.
 Rotational symmetry number  1.
 Warning -- assumption of classical behavior for rotation
           may cause significant error
 Rotational temperatures (Kelvin)      0.19424     0.01548     0.01483
 Rotational constants (GHZ):           4.04724     0.32250     0.30906
 Zero-point vibrational energy     661711.0 (Joules/Mol)
                                  158.15272 (Kcal/Mol)
 Vibrational temperatures:     45.74    78.40    80.25   120.77   125.97
          (Kelvin)            189.37   190.82   206.89   301.18   350.77
                              355.20   371.83   375.03   520.64   553.71
                              607.22   648.12   978.89  1020.41  1071.46
                             1077.17  1136.55  1158.11  1303.20  1314.50
                             1330.88  1349.71  1467.13  1487.73  1514.71
                             1534.34  1546.07  1546.64  1604.71  1606.16
                             1633.46  1778.97  1790.32  1792.52  1820.44
                             1901.60  1911.29  1940.84  1941.69  1944.80
                             1956.09  2034.57  2038.94  2074.50  2074.75
                             2120.15  2136.11  2184.13  2184.60  2198.28
                             2198.50  2200.86  2200.87  2217.60  2217.68
                             4353.33  4353.67  4366.19  4367.07  4378.82
                             4381.23  4381.31  4386.39  4397.07  4397.41
                             4438.87  4440.67  4468.76  4473.85  4477.65
                             4479.82  4482.49  4482.70

 Zero-point correction=                           0.252032 (Hartree/Particle)
 Thermal correction to Energy=                    0.252032
 Thermal correction to Enthalpy=                  0.252032
 Thermal correction to Gibbs Free Energy=         0.252032
 Sum of electronic and zero-point Energies=           -788.821432
 Sum of electronic and thermal Energies=              -788.821432
 Sum of electronic and thermal Enthalpies=            -788.821432
 Sum of electronic and thermal Free Energies=         -788.821432

                     E (Thermal)             CV                S
                      KCal/Mol        Cal/Mol-Kelvin    Cal/Mol-Kelvin
 Total                  158.153              5.962            -27.984
 Electronic               0.000              0.000              0.000
 Translational            0.000              2.981            -21.466
 Rotational               0.000              2.981             -6.519
 Vibrational            158.153              0.000              0.000

 Optimization completed.
    -- Stationary point found.
 Normal termination of Gaussian 16 at Mon Oct 14 01:47:24 2019.
