 Gaussian 16, Revision A.03,
 Gaussian 16:  ES64L-G16RevA.03 25-Dec-2016

 --------------------------------------------------------------
 #P opt freq b3lyp/6-31g(d) geom=connectivity temperature=0.001
 --------------------------------------------------------------

 -------------------
 Title Card Required
 -------------------
 Symbolic Z-matrix:
 Charge =  1 Multiplicity = 1

 SCF Done:  E(RB3LYP) =  -789.390852935     A.U. after   13 cycles
 SCF Done:  E(RB3LYP) =  -789.415682256     A.U. after   11 cycles
 SCF Done:  E(RB3LYP) =  -789.429774571     A.U. after   11 cycles
 SCF Done:  E(RB3LYP) =  -789.431540064     A.U. after   10 cycles
 SCF Done:  E(RB3LYP) =  -789.433322196     A.U. after   11 cycles
 SCF Done:  E(RB3LYP) =  -789.433897875     A.U. after   10 cycles
 SCF Done:  E(RB3LYP) =  -789.435824082     A.U. after   13 cycles
 SCF Done:  E(RB3LYP) =  -789.435898200     A.U. after   10 cycles
 SCF Done:  E(RB3LYP) =  -789.435295102     A.U. after    9 cycles
 SCF Done:  E(RB3LYP) =  -789.437046986     A.U. after   11 cycles
 SCF Done:  E(RB3LYP) =  -789.436934433     A.U. after    9 cycles
 SCF Done:  E(RB3LYP) =  -789.438047365     A.U. after   10 cycles
 SCF Done:  E(RB3LYP) =  -789.437962219     A.U. after   10 cycles
 SCF Done:  E(RB3LYP) =  -789.438093211     A.U. after    9 cycles
 SCF Done:  E(RB3LYP) =  -789.438088504     A.U. after    9 cycles
 SCF Done:  E(RB3LYP) =  -789.438098089     A.U. after    9 cycles
 SCF Done:  E(RB3LYP) =  -789.438098480     A.U. after    7 cycles
 SCF Done:  E(RB3LYP) =  -789.438098680     A.U. after    7 cycles
 SCF Done:  E(RB3LYP) =  -789.438098719     A.U. after    6 cycles
 Optimization completed.
    -- Stationary point found.
 Normal termination of Gaussian 16 at Mon Oct 14 01:48:28 2019.

 --------------------------------------------------------------------
 #P Geom=AllCheck Guess=TCheck SCRF=Check GenChk RB3LYP/6-31G(d) Freq
 --------------------------------------------------------------------

 Structure from the checkpoint file:  "31_p.chk"
 -------------------
 Title Card Required
 -------------------
 Charge =  1 Multiplicity = 1

                         Standard orientation:
 ---------------------------------------------------------------------
 Center     Atomic      Atomic             Coordinates (Angstroms)
 Number     Number       Type             X           Y           Z
 ---------------------------------------------------------------------
      1          6           0        5.289848   -0.004310    0.068912
      2          6           0        3.954800   -0.729620    0.266375
      3          6           0        2.759766    0.133071   -0.179930
      4          6           0        1.440692   -0.617755    0.034085
      5         16           0        0.000018    0.365505   -0.533909
      6          6           0       -1.440687   -0.617684    0.034149
      7          6           0       -2.759777    0.133095   -0.179930
      8          6           0       -3.954792   -0.729628    0.266358
      9          6           0       -5.289843   -0.004341    0.068887
     10          8           0        0.000061    1.687853    0.426496
     11          1           0        5.454091    0.248910   -0.984327
     12          1           0        5.330225    0.923380    0.650680
     13          1           0        6.120646   -0.637898    0.393209
     14          1           0        3.955494   -1.669640   -0.300888
     15          1           0        3.833352   -1.001415    1.323480
     16          1           0        2.748708    1.072188    0.385408
     17          1           0        2.867189    0.395583   -1.239557
     18          1           0        1.389637   -1.532009   -0.571610
     19          1           0        1.270468   -0.891040    1.082639
     20          1           0       -1.389637   -1.532013   -0.571431
     21          1           0       -1.270423   -0.890879    1.082724
     22          1           0       -2.748783    1.072243    0.385362
     23          1           0       -2.867177    0.395569   -1.239567
     24          1           0       -3.955449   -1.669628   -0.300930
     25          1           0       -3.833376   -1.001445    1.323463
     26          1           0       -5.454059    0.248928   -0.984346
     27          1           0       -6.120634   -0.637962    0.393128
     28          1           0       -5.330232    0.923320    0.650697
     29          1           0       -0.000849    1.455930    1.379009
 ---------------------------------------------------------------------

 SCF Done:  E(RB3LYP) =  -789.438098719     A.U. after    1 cycles

 The electronic state is 1-A.
 Alpha  occ. eigenvalues --  -89.19409 -19.39833 -10.40853 -10.40851 -10.34549
 Alpha  occ. eigenvalues --  -10.34547 -10.31557 -10.31555 -10.28380 -10.28379
 Alpha  occ. eigenvalues --   -8.24543  -6.21153  -6.20645  -6.20128  -1.26585
 Alpha  occ. eigenvalues --   -1.02611  -0.96377  -0.92320  -0.87763  -0.84834
 Alpha  occ. eigenvalues --   -0.79765  -0.78193  -0.72173  -0.72029  -0.71057
 Alpha  occ. eigenvalues --   -0.67092  -0.64870  -0.64096  -0.60331  -0.58979
 Alpha  occ. eigenvalues --   -0.56811  -0.56678  -0.56610  -0.53664  -0.53408
 Alpha  occ. eigenvalues --   -0.51944  -0.50859  -0.50505  -0.50260  -0.47937
 Alpha  occ. eigenvalues --   -0.46970  -0.46472  -0.45670  -0.45658  -0.45551
 Alpha virt. eigenvalues --   -0.21085  -0.15549  -0.12157  -0.11154  -0.06260
 Alpha virt. eigenvalues --   -0.03939  -0.03729  -0.03260  -0.01653  -0.00004
 Alpha virt. eigenvalues --    0.00862   0.01832   0.02155   0.02835   0.03024

 Mulliken charges:
               1
     1  C   -0.449872
     2  C   -0.266047
     3  C   -0.281618
     4  C   -0.493887
     5  S    0.848110
     6  C   -0.493936
     7  C   -0.281608
     8  C   -0.266050
     9  C   -0.449872
    10  O   -0.609400
    11  H    0.165096
    12  H    0.162379
    13  H    0.181180
    14  H    0.160218
    15  H    0.155845
    16  H    0.178379
    17  H    0.187701
    18  H    0.236566
    19  H    0.217355
    20  H    0.236589
    21  H    0.217353
    22  H    0.178342
    23  H    0.187717
    24  H    0.160227
    25  H    0.155848
    26  H    0.165099
    27  H    0.181186
    28  H    0.162378
    29  H    0.454720
 Sum of Mulliken charges =   1.00000

 Dipole moment (field-independent basis, Debye):
    X=             -0.0019    Y=             -1.5272    Z=              1.1880  Tot=              1.9349
 Quadrupole moment (field-independent basis, Debye-Ang):
   XX=            -38.8333   YY=            -67.5315   ZZ=            -63.7547
   XY=             -0.0018   XZ=             -0.0023   YZ=              2.9057

  Exact polarizability: 152.381  -0.000  93.199  -0.002   1.143  86.456
 Approx polarizability: 162.805   0.001 145.029  -0.003   3.364 132.957

                      1                      2                      3
                      A                      A                      A
 Frequencies --     32.4701                52.1090                52.2702
 Red. masses --      3.1913                 4.0380                 1.5698
 Frc consts  --      0.0020                 0.0065                 0.0025
 IR Inten    --      2.0088                 1.2149                 0.1286

                      4                      5                      6
                      A                      A                      A
 Frequencies --     78.4126                85.7463               127.6970
 Red. masses --      2.0052                 2.8084                 2.2474
 Frc consts  --      0.0073                 0.0122                 0.0216
 IR Inten    --      1.8224                 0.0605                 0.5191

                      7                      8                      9
                      A                      A                      A
 Frequencies --    130.5757               146.8018               202.2642
 Red. masses --      2.7354                 2.4304                 3.7179
 Frc consts  --      0.0275                 0.0309                 0.0896
 IR Inten    --      0.1059                 2.1680                 0.2232

                     10                     11                     12
                      A                      A                      A
 Frequencies --    238.5599               242.8586               251.1464
 Red. masses --      1.6644                 1.3999                 2.1490
 Frc consts  --      0.0558                 0.0486                 0.0799
 IR Inten    --      0.7820                 0.5210                 0.1117

                     13                     14                     15
                      A                      A                      A
 Frequencies --    254.4377               330.6611               348.0582
 Red. masses --      1.6196                 2.8843                 1.4020
 Frc consts  --      0.0618                 0.1858                 0.1001
 IR Inten    --      0.2939                 6.1307               108.9314

                     16                     17                     18
                      A                      A                      A
 Frequencies --    383.0380               434.5443               440.1864
 Red. masses --      3.1170                 2.9537                 2.8748
 Frc consts  --      0.2694                 0.3286                 0.3282
 IR Inten    --     10.3302                 0.1677                96.2691

                     19                     20                     21
                      A                      A                      A
 Frequencies --    671.5934               682.0931               745.1629
 Red. masses --      4.7005                 5.3720                 1.0866
 Frc consts  --      1.2491                 1.4726                 0.3555
 IR Inten    --      3.7962                 3.5764                 0.0078

                     22                     23                     24
                      A                      A                      A
 Frequencies --    747.7673               791.3021               800.4920
 Red. masses --      1.0806                 1.1980                 1.2254
 Frc consts  --      0.3560                 0.4420                 0.4626
 IR Inten    --     11.7276                 0.0252                 0.2114

                     25                     26                     27
                      A                      A                      A
 Frequencies --    828.4959               908.8464               917.6089
 Red. masses --     11.3230                 1.9239                 1.8727
 Frc consts  --      4.5792                 0.9363                 0.9290
 IR Inten    --     59.9881                 1.8891                 3.6119

                     28                     29                     30
                      A                      A                      A
 Frequencies --    932.4346               941.9237              1000.9099
 Red. masses --      1.2540                 1.2518                 4.0948
 Frc consts  --      0.6424                 0.6544                 2.4170
 IR Inten    --      0.2688                 9.1851                 0.1444

                     31                     32                     33
                      A                      A                      A
 Frequencies --   1018.9109              1052.0452              1052.8801
 Red. masses --      3.5545                 2.8023                 2.7475
 Frc consts  --      2.1742                 1.8274                 1.7945
 IR Inten    --      0.7972                 0.0049                 3.1010

                     34                     35                     36
                      A                      A                      A
 Frequencies --   1097.8126              1105.6390              1115.8686
 Red. masses --      1.1584                 1.1590                 1.9504
 Frc consts  --      0.8226                 0.8348                 1.4308
 IR Inten    --      4.3627                11.9640                42.1791

                     37                     38                     39
                      A                      A                      A
 Frequencies --   1136.6436              1216.0695              1235.4765
 Red. masses --      2.2557                 1.3560                 1.4921
 Frc consts  --      1.7171                 1.1815                 1.3419
 IR Inten    --      1.4073                34.2695                 0.0280

                     40                     41                     42
                      A                      A                      A
 Frequencies --   1254.0830              1255.1767              1281.3004
 Red. masses --      1.3127                 1.2490                 1.2456
 Frc consts  --      1.2163                 1.1594                 1.2048
 IR Inten    --     13.5425                10.6360                 2.4177

                     43                     44                     45
                      A                      A                      A
 Frequencies --   1320.3621              1328.4796              1348.7911
 Red. masses --      1.1854                 1.1751                 1.2832
 Frc consts  --      1.2175                 1.2219                 1.3755
 IR Inten    --      0.7953                 1.0983                 1.4098

                     46                     47                     48
                      A                      A                      A
 Frequencies --   1351.7765              1352.7639              1363.8378
 Red. masses --      1.0737                 1.0573                 1.3067
 Frc consts  --      1.1559                 1.1400                 1.4320
 IR Inten    --      0.4134                 8.9626                 2.4710

                     49                     50                     51
                      A                      A                      A
 Frequencies --   1404.8759              1407.4380              1447.9368
 Red. masses --      1.4236                 1.4212                 1.2198
 Frc consts  --      1.6554                 1.6587                 1.5068
 IR Inten    --     13.8816                 0.0419                 0.0001

                     52                     53                     54
                      A                      A                      A
 Frequencies --   1448.2288              1468.3529              1479.8096
 Red. masses --      1.2200                 1.0841                 1.0887
 Frc consts  --      1.5076                 1.3772                 1.4046
 IR Inten    --      2.9718                13.1725                 8.8830

                     55                     56                     57
                      A                      A                      A
 Frequencies --   1516.8963              1517.4713              1524.1886
 Red. masses --      1.0622                 1.0618                 1.0668
 Frc consts  --      1.4400                 1.4406                 1.4601
 IR Inten    --     13.5671                 0.4648                 0.0108

                     58                     59                     60
                      A                      A                      A
 Frequencies --   1524.5118              1529.1050              1529.1135
 Red. masses --      1.0686                 1.0394                 1.0394
 Frc consts  --      1.4633                 1.4318                 1.4318
 IR Inten    --      0.4555                 0.5018                21.3537

                     61                     62                     63
                      A                      A                      A
 Frequencies --   1538.7754              1538.8825              3039.5570
 Red. masses --      1.0878                 1.0879                 1.0593
 Frc consts  --      1.5175                 1.5179                 5.7662
 IR Inten    --      0.4066                16.5256                 0.0418

                     64                     65                     66
                      A                      A                      A
 Frequencies --   3039.7822              3052.5479              3055.6821
 Red. masses --      1.0595                 1.0573                 1.0562
 Frc consts  --      5.7680                 5.8045                 5.8103
 IR Inten    --     25.7918                 4.2674                 1.5606

                     67                     68                     69
                      A                      A                      A
 Frequencies --   3058.2074              3058.7121              3063.8744
 Red. masses --      1.0387                 1.0405                 1.0571
 Frc consts  --      5.7238                 5.7354                 5.8464
 IR Inten    --     14.0906                11.8402                10.7092

                     70                     71                     72
                      A                      A                      A
 Frequencies --   3064.9115              3072.3144              3072.3850
 Red. masses --      1.0573                 1.1036                 1.1036
 Frc consts  --      5.8516                 6.1374                 6.1378
 IR Inten    --     28.0719                 0.3912                12.7860

                     73                     74                     75
                      A                      A                      A
 Frequencies --   3100.8072              3102.5340              3119.9798
 Red. masses --      1.1067                 1.1068                 1.1080
 Frc consts  --      6.2694                 6.2769                 6.3546
 IR Inten    --      0.0067                11.2208                 0.1015

                     76                     77                     78
                      A                      A                      A
 Frequencies --   3122.0949              3127.3381              3127.5758
 Red. masses --      1.1073                 1.1042                 1.1043
 Frc consts  --      6.3594                 6.3625                 6.3643
 IR Inten    --      1.0442                 0.3576                74.0016

                     79                     80                     81
                      A                      A                      A
 Frequencies --   3139.4871              3139.5134              3625.2373
 Red. masses --      1.1020                 1.1020                 1.0672
 Frc consts  --      6.3994                 6.3994                 8.2638
 IR Inten    --      9.8425                18.5972                75.2396

 - Thermochemistry -
 -------------------
 Temperature     0.001 Kelvin.  Pressure   1.00000 Atm.
 Atom     1 has atomic number  6 and mass  12.00000

 Molecular mass:   163.11566 amu.
 Principal axes and moments of inertia in atomic units:
                           1         2         3
     Eigenvalues --   440.061475721.397895948.90208
           X            1.00000  -0.00000  -0.00000
           Y            0.00000   1.00000   0.00243
           Z            0.00000  -0.00243   1.00000
 This molecule is an asymmetric top.
 Rotational symmetry number  1.
 Warning -- assumption of classical behavior for rotation
           may cause significant error
 Rotational temperatures (Kelvin)      0.19682     0.01514     0.01456
 Rotational constants (GHZ):           4.10111     0.31544     0.30337
 Zero-point vibrational energy     692317.9 (Joules/Mol)
                                  165.46795 (Kcal/Mol)
 Vibrational temperatures:     46.72    74.97    75.21   112.82   123.37
          (Kelvin)            183.73   187.87   211.22   291.01   343.23
                              349.42   361.34   366.08   475.75   500.78
                              551.11   625.21   633.33   966.27   981.38
                             1072.12  1075.87  1138.51  1151.73  1192.02
                             1307.63  1320.23  1341.57  1355.22  1440.09
                             1465.99  1513.66  1514.86  1579.51  1590.77
                             1605.49  1635.38  1749.65  1777.58  1804.35
                             1805.92  1843.51  1899.71  1911.39  1940.61
                             1944.90  1946.33  1962.26  2021.30  2024.99
                             2083.26  2083.68  2112.63  2129.12  2182.48
                             2183.30  2192.97  2193.43  2200.04  2200.05
                             2213.95  2214.11  4373.24  4373.57  4391.94
                             4396.44  4400.08  4400.80  4408.23  4409.72
                             4420.38  4420.48  4461.37  4463.85  4488.96
                             4492.00  4499.54  4499.88  4517.02  4517.06
                             5215.91

 Zero-point correction=                           0.263690 (Hartree/Particle)
 Thermal correction to Energy=                    0.263690
 Thermal correction to Enthalpy=                  0.263690
 Thermal correction to Gibbs Free Energy=         0.263690
 Sum of electronic and zero-point Energies=           -789.174409
 Sum of electronic and thermal Energies=              -789.174409
 Sum of electronic and thermal Enthalpies=            -789.174409
 Sum of electronic and thermal Free Energies=         -789.174409

                     E (Thermal)             CV                S
                      KCal/Mol        Cal/Mol-Kelvin    Cal/Mol-Kelvin
 Total                  165.468              5.962            -27.938
 Electronic               0.000              0.000              0.000
 Translational            0.000              2.981            -21.447
 Rotational               0.000              2.981             -6.491
 Vibrational            165.468              0.000              0.000

 Optimization completed.
    -- Stationary point found.
 Normal termination of Gaussian 16 at Mon Oct 14 01:49:05 2019.
