 Gaussian 16, Revision A.03,
 Gaussian 16:  ES64L-G16RevA.03 25-Dec-2016

 --------------------------------------------------------------
 #P opt freq b3lyp/6-31g(d) geom=connectivity temperature=0.001
 --------------------------------------------------------------

 -------------------
 Title Card Required
 -------------------
 Symbolic Z-matrix:
 Charge =  0 Multiplicity = 1

 SCF Done:  E(RB3LYP) =  -936.639869704     A.U. after   15 cycles
 SCF Done:  E(RB3LYP) =  -936.650457552     A.U. after   13 cycles
 SCF Done:  E(RB3LYP) =  -936.654254546     A.U. after   14 cycles
 SCF Done:  E(RB3LYP) =  -936.655749124     A.U. after   13 cycles
 SCF Done:  E(RB3LYP) =  -936.656306489     A.U. after   13 cycles
 SCF Done:  E(RB3LYP) =  -936.656352105     A.U. after   11 cycles
 SCF Done:  E(RB3LYP) =  -936.656355475     A.U. after   11 cycles
 SCF Done:  E(RB3LYP) =  -936.656355695     A.U. after    8 cycles
 Optimization completed.
    -- Stationary point found.
 Normal termination of Gaussian 16 at Mon Oct 14 01:50:34 2019.

 --------------------------------------------------------------------
 #P Geom=AllCheck Guess=TCheck SCRF=Check GenChk RB3LYP/6-31G(d) Freq
 --------------------------------------------------------------------

 Structure from the checkpoint file:  "32.chk"
 -------------------
 Title Card Required
 -------------------
 Charge =  0 Multiplicity = 1

                         Standard orientation:
 ---------------------------------------------------------------------
 Center     Atomic      Atomic             Coordinates (Angstroms)
 Number     Number       Type             X           Y           Z
 ---------------------------------------------------------------------
      1          8           0        0.000000    2.531995    0.317652
      2         16           0       -0.000000    1.195866    1.032580
      3          6           0       -1.380588    0.228129    0.317739
      4          6           0       -1.815006   -0.946924    0.931439
      5          6           0       -2.897642   -1.637516    0.384586
      6          6           0       -3.542121   -1.142522   -0.752050
      7          6           0       -3.108922    0.047085   -1.342261
      8          6           0       -2.024691    0.742564   -0.804665
      9          6           0        1.380588    0.228129    0.317740
     10          6           0        1.815005   -0.946925    0.931439
     11          6           0        2.897641   -1.637518    0.384585
     12          6           0        3.542121   -1.142523   -0.752050
     13          6           0        3.108923    0.047086   -1.342260
     14          6           0        2.024692    0.742565   -0.804664
     15          1           0       -1.322761   -1.320623    1.826048
     16          1           0       -3.243396   -2.555858    0.851362
     17          1           0       -4.389038   -1.679373   -1.170589
     18          1           0       -3.618606    0.436177   -2.219691
     19          1           0       -1.674492    1.679880   -1.227117
     20          1           0        1.322760   -1.320625    1.826047
     21          1           0        3.243394   -2.555860    0.851361
     22          1           0        4.389038   -1.679373   -1.170589
     23          1           0        3.618608    0.436178   -2.219690
     24          1           0        1.674493    1.679881   -1.227116
 ---------------------------------------------------------------------

 SCF Done:  E(RB3LYP) =  -936.656355695     A.U. after    1 cycles

 The electronic state is 1-A.
 Alpha  occ. eigenvalues --  -88.99066 -19.10954 -10.21840 -10.21839 -10.20787
 Alpha  occ. eigenvalues --  -10.20787 -10.20312 -10.20312 -10.20140 -10.20140
 Alpha  occ. eigenvalues --  -10.20084 -10.20084 -10.19955 -10.19955  -8.03691
 Alpha  occ. eigenvalues --   -6.00104  -5.99997  -5.99449  -1.00525  -0.86834
 Alpha  occ. eigenvalues --   -0.86359  -0.78390  -0.75672  -0.75573  -0.75526
 Alpha  occ. eigenvalues --   -0.68497  -0.61901  -0.61484  -0.60884  -0.58099
 Alpha  occ. eigenvalues --   -0.53265  -0.51869  -0.47099  -0.46522  -0.45999
 Alpha  occ. eigenvalues --   -0.45757  -0.43805  -0.43528  -0.43068  -0.43005
 Alpha  occ. eigenvalues --   -0.38889  -0.37466  -0.37367  -0.35936  -0.35927
 Alpha  occ. eigenvalues --   -0.35527  -0.35244  -0.27738  -0.26927  -0.26298
 Alpha  occ. eigenvalues --   -0.25825  -0.25287  -0.22669
 Alpha virt. eigenvalues --   -0.02998  -0.01677  -0.01335  -0.00584   0.03501
 Alpha virt. eigenvalues --    0.05928   0.07134   0.10387   0.11552   0.12310
 Alpha virt. eigenvalues --    0.14063   0.14496   0.15011   0.16222   0.17000

 Mulliken charges:
               1
     1  O   -0.642688
     2  S    0.781426
     3  C   -0.147332
     4  C   -0.148938
     5  C   -0.123168
     6  C   -0.124324
     7  C   -0.122210
     8  C   -0.137321
     9  C   -0.147332
    10  C   -0.148937
    11  C   -0.123168
    12  C   -0.124324
    13  C   -0.122210
    14  C   -0.137321
    15  H    0.139590
    16  H    0.138005
    17  H    0.137462
    18  H    0.140115
    19  H    0.178751
    20  H    0.139590
    21  H    0.138005
    22  H    0.137462
    23  H    0.140115
    24  H    0.178751
 Sum of Mulliken charges =  -0.00000

 Dipole moment (field-independent basis, Debye):
    X=             -0.0000    Y=             -3.9095    Z=             -0.4766  Tot=              3.9384
 Quadrupole moment (field-independent basis, Debye-Ang):
   XX=            -76.5859   YY=            -92.5043   ZZ=            -82.1793
   XY=              0.0000   XZ=             -0.0000   YZ=             -5.7584

  Exact polarizability: 168.236   0.000 130.512  -0.000 -21.765 112.696
 Approx polarizability: 227.185   0.000 240.017  -0.000 -52.995 203.712

                      1                      2                      3
                      A                      A                      A
 Frequencies --     15.9655                44.5143                59.9004
 Red. masses --      3.7132                 4.9028                 4.6336
 Frc consts  --      0.0006                 0.0057                 0.0098
 IR Inten    --      0.1639                 0.5601                 0.0909

                      4                      5                      6
                      A                      A                      A
 Frequencies --    159.8161               179.9555               199.7045
 Red. masses --      4.8953                 6.8478                 5.4671
 Frc consts  --      0.0737                 0.1307                 0.1285
 IR Inten    --      0.5020                 5.7551                 5.6305

                      7                      8                      9
                      A                      A                      A
 Frequencies --    242.1545               293.6584               348.4568
 Red. masses --      4.8783                 8.0216                 8.1121
 Frc consts  --      0.1685                 0.4076                 0.5803
 IR Inten    --      1.8705                 0.5028                 2.0025

                     10                     11                     12
                      A                      A                      A
 Frequencies --    409.5416               416.0297               448.8983
 Red. masses --      2.9858                 3.0286                 4.7750
 Frc consts  --      0.2951                 0.3088                 0.5669
 IR Inten    --      1.9105                 0.0906                 7.9710

                     13                     14                     15
                      A                      A                      A
 Frequencies --    467.9823               479.1815               546.6697
 Red. masses --      6.4399                 6.6162                 4.9742
 Frc consts  --      0.8310                 0.8951                 0.8758
 IR Inten    --      0.6087                34.8801                50.2598

                     16                     17                     18
                      A                      A                      A
 Frequencies --    626.3966               628.1189               694.8230
 Red. masses --      6.4390                 6.4575                 6.4158
 Frc consts  --      1.4886                 1.5011                 1.8249
 IR Inten    --      0.0579                 0.1201                 1.1588

                     19                     20                     21
                      A                      A                      A
 Frequencies --    696.5235               702.0114               709.4396
 Red. masses --      4.5485                 3.4477                 2.4421
 Frc consts  --      1.3001                 1.0011                 0.7242
 IR Inten    --      7.1174                 1.8498                40.0681

                     22                     23                     24
                      A                      A                      A
 Frequencies --    750.7082               766.7864               855.3459
 Red. masses --      1.3734                 1.5476                 1.2507
 Frc consts  --      0.4560                 0.5361                 0.5391
 IR Inten    --     39.1957                20.1790                 0.0906

                     25                     26                     27
                      A                      A                      A
 Frequencies --    862.0970               923.3835               931.4520
 Red. masses --      1.2423                 1.3182                 1.3289
 Frc consts  --      0.5440                 0.6622                 0.6793
 IR Inten    --      0.1387                 1.6624                 0.7085

                     28                     29                     30
                      A                      A                      A
 Frequencies --    973.2576               977.2444              1003.0697
 Red. masses --      1.3423                 1.3356                 1.2693
 Frc consts  --      0.7491                 0.7515                 0.7524
 IR Inten    --      0.2097                 0.0180                 0.1342

                     31                     32                     33
                      A                      A                      A
 Frequencies --   1004.1187              1012.4905              1014.0477
 Red. masses --      1.3026                 6.3491                 5.5645
 Frc consts  --      0.7738                 3.8348                 3.3713
 IR Inten    --      0.3267                 4.6456                 5.3474

                     34                     35                     36
                      A                      A                      A
 Frequencies --   1046.9169              1048.1497              1058.5594
 Red. masses --      3.2238                 3.3688                 5.1210
 Frc consts  --      2.0818                 2.1806                 3.3809
 IR Inten    --      3.3397                 5.4826                66.5444

                     37                     38                     39
                      A                      A                      A
 Frequencies --   1080.6064              1098.8730              1104.7121
 Red. masses --      2.4032                 3.1610                 1.5850
 Frc consts  --      1.6534                 2.2489                 1.1397
 IR Inten    --     12.5395                35.3035                 0.0505

                     40                     41                     42
                      A                      A                      A
 Frequencies --   1111.5108              1192.7855              1193.3397
 Red. masses --      1.6647                 1.1147                 1.1112
 Frc consts  --      1.2118                 0.9344                 0.9323
 IR Inten    --      5.8337                 0.5869                 0.0434

                     43                     44                     45
                      A                      A                      A
 Frequencies --   1202.9204              1206.2295              1335.1510
 Red. masses --      1.1535                 1.1548                 1.6368
 Frc consts  --      0.9834                 0.9899                 1.7191
 IR Inten    --      4.9665                 0.0752                 2.3458

                     46                     47                     48
                      A                      A                      A
 Frequencies --   1339.3598              1358.0108              1361.9549
 Red. masses --      1.5829                 3.6335                 3.8773
 Frc consts  --      1.6730                 3.9481                 4.2374
 IR Inten    --      2.6289                 0.7774                 3.4948

                     49                     50                     51
                      A                      A                      A
 Frequencies --   1489.3677              1490.9339              1522.9837
 Red. masses --      2.1515                 2.1655                 2.0432
 Frc consts  --      2.8119                 2.8361                 2.7922
 IR Inten    --      2.1134                19.5896                12.7644

                     52                     53                     54
                      A                      A                      A
 Frequencies --   1526.0558              1641.1010              1643.0617
 Red. masses --      2.0468                 5.3529                 5.7651
 Frc consts  --      2.8084                 8.4939                 9.1698
 IR Inten    --      4.1597                 8.3443                 0.5363

                     55                     56                     57
                      A                      A                      A
 Frequencies --   1643.8482              1645.4796              3179.9386
 Red. masses --      5.3346                 5.7535                 1.0862
 Frc consts  --      8.4933                 9.1783                 6.4715
 IR Inten    --      0.3530                 1.1888                 2.2290

                     58                     59                     60
                      A                      A                      A
 Frequencies --   3182.7075              3188.4582              3190.0667
 Red. masses --      1.0853                 1.0875                 1.0880
 Frc consts  --      6.4773                 6.5140                 6.5234
 IR Inten    --      1.2751                 0.4215                 3.4207

                     61                     62                     63
                      A                      A                      A
 Frequencies --   3198.2007              3199.0440              3209.4377
 Red. masses --      1.0915                 1.0918                 1.0947
 Frc consts  --      6.5780                 6.5834                 6.6438
 IR Inten    --      2.1858                40.3293                15.1847

                     64                     65                     66
                      A                      A                      A
 Frequencies --   3209.9779              3215.0724              3215.8462
 Red. masses --      1.0949                 1.0949                 1.0947
 Frc consts  --      6.6468                 6.6682                 6.6703
 IR Inten    --     14.0004                29.2055                 9.5039

 - Thermochemistry -
 -------------------
 Temperature     0.001 Kelvin.  Pressure   1.00000 Atm.
 Atom     1 has atomic number  8 and mass  15.99491

 Molecular mass:   202.04524 amu.
 Principal axes and moments of inertia in atomic units:
                           1         2         3
     Eigenvalues --  1667.355004325.538784865.31003
           X            1.00000   0.00000  -0.00000
           Y           -0.00000   0.99731  -0.07328
           Z            0.00000   0.07328   0.99731
 This molecule is an asymmetric top.
 Rotational symmetry number  1.
 Warning -- assumption of classical behavior for rotation
           may cause significant error
 Rotational temperatures (Kelvin)      0.05195     0.02002     0.01780
 Rotational constants (GHZ):           1.08240     0.41723     0.37094
 Zero-point vibrational energy     489119.6 (Joules/Mol)
                                  116.90238 (Kcal/Mol)
 Vibrational temperatures:     22.97    64.05    86.18   229.94   258.92
          (Kelvin)            287.33   348.41   422.51   501.35   589.24
                              598.57   645.86   673.32   689.44   786.54
                              901.24   903.72   999.70  1002.14  1010.04
                             1020.73  1080.10  1103.23  1230.65  1240.37
                             1328.54  1340.15  1400.30  1406.04  1443.19
                             1444.70  1456.75  1458.99  1506.28  1508.05
                             1523.03  1554.75  1581.03  1589.43  1599.22
                             1716.15  1716.95  1730.73  1735.50  1920.98
                             1927.04  1953.87  1959.55  2142.87  2145.12
                             2191.23  2195.65  2361.18  2364.00  2365.13
                             2367.48  4575.22  4579.21  4587.48  4589.79
                             4601.50  4602.71  4617.66  4618.44  4625.77
                             4626.89

 Zero-point correction=                           0.186296 (Hartree/Particle)
 Thermal correction to Energy=                    0.186296
 Thermal correction to Enthalpy=                  0.186296
 Thermal correction to Gibbs Free Energy=         0.186296
 Sum of electronic and zero-point Energies=           -936.470060
 Sum of electronic and thermal Energies=              -936.470060
 Sum of electronic and thermal Enthalpies=            -936.470060
 Sum of electronic and thermal Free Energies=         -936.470060

                     E (Thermal)             CV                S
                      KCal/Mol        Cal/Mol-Kelvin    Cal/Mol-Kelvin
 Total                  116.902              5.962            -26.454
 Electronic               0.000              0.000              0.000
 Translational            0.000              2.981            -20.809
 Rotational               0.000              2.981             -5.645
 Vibrational            116.902              0.000              0.000

 Optimization completed.
    -- Stationary point found.
 Normal termination of Gaussian 16 at Mon Oct 14 01:51:29 2019.
