 Gaussian 16, Revision A.03,
 Gaussian 16:  ES64L-G16RevA.03 25-Dec-2016

 --------------------------------------------------------------
 #p opt freq b3lyp/6-31g(d) geom=connectivity temperature=0.001
 --------------------------------------------------------------

 -------------------
 Title Card Required
 -------------------
 Symbolic Z-matrix:
 Charge =  1 Multiplicity = 1

 SCF Done:  E(RB3LYP) =  -936.992552244     A.U. after   15 cycles
 SCF Done:  E(RB3LYP) =  -937.009209634     A.U. after   13 cycles
 SCF Done:  E(RB3LYP) =  -937.019065743     A.U. after   15 cycles
 SCF Done:  E(RB3LYP) =  -937.021540064     A.U. after   15 cycles
 SCF Done:  E(RB3LYP) =  -937.021935188     A.U. after   14 cycles
 SCF Done:  E(RB3LYP) =  -937.022621187     A.U. after   12 cycles
 SCF Done:  E(RB3LYP) =  -937.023175007     A.U. after   12 cycles
 SCF Done:  E(RB3LYP) =  -937.023651866     A.U. after   12 cycles
 SCF Done:  E(RB3LYP) =  -937.023989207     A.U. after   12 cycles
 SCF Done:  E(RB3LYP) =  -937.024423031     A.U. after   11 cycles
 SCF Done:  E(RB3LYP) =  -937.025207859     A.U. after   12 cycles
 SCF Done:  E(RB3LYP) =  -937.025481730     A.U. after   12 cycles
 SCF Done:  E(RB3LYP) =  -937.025528590     A.U. after   11 cycles
 SCF Done:  E(RB3LYP) =  -937.025545229     A.U. after   11 cycles
 SCF Done:  E(RB3LYP) =  -937.025548322     A.U. after   11 cycles
 SCF Done:  E(RB3LYP) =  -937.025550371     A.U. after    8 cycles
 SCF Done:  E(RB3LYP) =  -937.025551052     A.U. after    8 cycles
 SCF Done:  E(RB3LYP) =  -937.025551154     A.U. after    8 cycles
 Optimization completed.
    -- Stationary point found.
 Normal termination of Gaussian 16 at Mon Oct 14 01:53:46 2019.

 --------------------------------------------------------------------
 #P Geom=AllCheck Guess=TCheck SCRF=Check GenChk RB3LYP/6-31G(d) Freq
 --------------------------------------------------------------------

 Structure from the checkpoint file:  "32_p.chk"
 -------------------
 Title Card Required
 -------------------
 Charge =  1 Multiplicity = 1

                         Standard orientation:
 ---------------------------------------------------------------------
 Center     Atomic      Atomic             Coordinates (Angstroms)
 Number     Number       Type             X           Y           Z
 ---------------------------------------------------------------------
      1          8           0       -0.081279    2.042817    1.307778
      2         16           0       -0.056226    1.341657   -0.196169
      3          6           0        1.435747    0.363674   -0.131552
      4          6           0        2.047541    0.102957   -1.363113
      5          6           0        3.215330   -0.659454   -1.373674
      6          6           0        3.758581   -1.125209   -0.174102
      7          6           0        3.142998   -0.833533    1.047452
      8          6           0        1.968200   -0.084062    1.082960
      9          6           0       -1.433257    0.230851   -0.096813
     10          6           0       -2.593747    0.666970   -0.754793
     11          6           0       -3.731783   -0.134860   -0.703004
     12          6           0       -3.698828   -1.347324   -0.009997
     13          6           0       -2.530539   -1.772120    0.633823
     14          6           0       -1.382144   -0.987553    0.594021
     15          1           0        1.631001    0.484694   -2.291055
     16          1           0        3.705394   -0.875065   -2.317619
     17          1           0        4.673964   -1.708624   -0.188819
     18          1           0        3.580201   -1.184955    1.976731
     19          1           0        1.496828    0.169962    2.026273
     20          1           0       -2.607217    1.608388   -1.296427
     21          1           0       -4.638237    0.184714   -1.206696
     22          1           0       -4.586704   -1.971265    0.023858
     23          1           0       -2.514132   -2.719059    1.163818
     24          1           0       -0.470439   -1.320110    1.077444
     25          1           0        0.090587    3.000256    1.201723
 ---------------------------------------------------------------------

 SCF Done:  E(RB3LYP) =  -937.025551154     A.U. after    1 cycles

 The electronic state is 1-A.
 Alpha  occ. eigenvalues --  -89.18281 -19.37318 -10.38558 -10.38457 -10.35685
 Alpha  occ. eigenvalues --  -10.35436 -10.35391 -10.35109 -10.34128 -10.33876
 Alpha  occ. eigenvalues --  -10.33813 -10.33725 -10.33684 -10.33632  -8.23210
 Alpha  occ. eigenvalues --   -6.19778  -6.19363  -6.18863  -1.23865  -1.03686
 Alpha  occ. eigenvalues --   -1.00998  -0.96858  -0.90550  -0.90081  -0.89808
 Alpha  occ. eigenvalues --   -0.86097  -0.76761  -0.76340  -0.75535  -0.74079
 Alpha  occ. eigenvalues --   -0.70126  -0.68247  -0.66133  -0.62612  -0.62287
 Alpha  occ. eigenvalues --   -0.60303  -0.59935  -0.58807  -0.58349  -0.57583
 Alpha  occ. eigenvalues --   -0.57228  -0.52722  -0.52272  -0.52170  -0.50888
 Alpha  occ. eigenvalues --   -0.50112  -0.49674  -0.48792  -0.47847  -0.41837
 Alpha  occ. eigenvalues --   -0.40318  -0.40075  -0.39934
 Alpha virt. eigenvalues --   -0.22200  -0.17179  -0.15253  -0.14979  -0.13679
 Alpha virt. eigenvalues --   -0.11840  -0.09302  -0.06200  -0.02084  -0.01710
 Alpha virt. eigenvalues --   -0.00265   0.00223   0.00984   0.01669   0.02553

 Mulliken charges:
               1
     1  O   -0.631172
     2  S    0.764064
     3  C   -0.163037
     4  C   -0.134860
     5  C   -0.119077
     6  C   -0.106882
     7  C   -0.121265
     8  C   -0.130420
     9  C   -0.144268
    10  C   -0.129041
    11  C   -0.118332
    12  C   -0.104501
    13  C   -0.118121
    14  C   -0.106126
    15  H    0.186738
    16  H    0.189166
    17  H    0.189657
    18  H    0.188349
    19  H    0.198118
    20  H    0.187844
    21  H    0.190779
    22  H    0.192575
    23  H    0.188985
    24  H    0.182999
    25  H    0.467827
 Sum of Mulliken charges =   1.00000

 Dipole moment (field-independent basis, Debye):
    X=             -0.0850    Y=              1.3988    Z=             -0.4751  Tot=              1.4797
 Quadrupole moment (field-independent basis, Debye-Ang):
   XX=            -44.7928   YY=            -65.3911   ZZ=            -76.8618
   XY=             -1.1728   XZ=              2.1285   YZ=             -2.2753

  Exact polarizability: 197.272  -7.627 117.450   7.615 -13.462 110.792
 Approx polarizability: 277.966 -18.478 202.751  17.868 -30.421 203.006

                      1                      2                      3
                      A                      A                      A
 Frequencies --     31.2290                40.7200                64.6364
 Red. masses --      4.1389                 4.0653                 4.9849
 Frc consts  --      0.0024                 0.0040                 0.0123
 IR Inten    --      0.7315                 0.6897                 0.3145

                      4                      5                      6
                      A                      A                      A
 Frequencies --    122.5116               168.2685               186.5292
 Red. masses --      5.5179                 6.1003                 1.9682
 Frc consts  --      0.0488                 0.1018                 0.0403
 IR Inten    --      2.8358                 5.5754                79.5104

                      7                      8                      9
                      A                      A                      A
 Frequencies --    221.9760               260.0846               302.3873
 Red. masses --      3.5242                 4.5193                 1.9489
 Frc consts  --      0.1023                 0.1801                 0.1050
 IR Inten    --     12.2339                 1.7267                17.0047

                     10                     11                     12
                      A                      A                      A
 Frequencies --    336.0545               405.8675               409.3459
 Red. masses --      6.4250                 2.9704                 2.9566
 Frc consts  --      0.4275                 0.2883                 0.2919
 IR Inten    --      1.2900                 2.9996                 0.6625

                     13                     14                     15
                      A                      A                      A
 Frequencies --    425.6687               473.5291               493.6617
 Red. masses --      5.7861                 8.2154                 4.0797
 Frc consts  --      0.6177                 1.0854                 0.5858
 IR Inten    --     12.4329                23.4260                25.3586

                     16                     17                     18
                      A                      A                      A
 Frequencies --    507.4698               621.4145               622.9199
 Red. masses --      5.0255                 6.4757                 6.5048
 Frc consts  --      0.7625                 1.4733                 1.4871
 IR Inten    --     32.0755                 0.3340                 0.4284

                     19                     20                     21
                      A                      A                      A
 Frequencies --    685.4014               691.8526               702.2649
 Red. masses --      2.5935                 2.8641                 6.5121
 Frc consts  --      0.7178                 0.8077                 1.8922
 IR Inten    --     17.6923                13.2640                 0.8399

                     22                     23                     24
                      A                      A                      A
 Frequencies --    717.6121               760.9806               762.4255
 Red. masses --      6.8223                 1.4166                 1.4826
 Frc consts  --      2.0699                 0.4833                 0.5078
 IR Inten    --     11.1620                28.7776               105.9508

                     25                     26                     27
                      A                      A                      A
 Frequencies --    772.5306               847.9784               852.7056
 Red. masses --      6.4345                 1.2538                 1.2476
 Frc consts  --      2.2625                 0.5312                 0.5345
 IR Inten    --     54.0524                 0.2428                 0.4093

                     28                     29                     30
                      A                      A                      A
 Frequencies --    944.9898               949.8984               988.6213
 Red. masses --      1.2847                 1.2876                 1.3570
 Frc consts  --      0.6760                 0.6845                 0.7814
 IR Inten    --      1.2115                 0.2555                 0.0176

                     31                     32                     33
                      A                      A                      A
 Frequencies --    990.0319              1009.4549              1012.7700
 Red. masses --      1.3542                 6.4691                 6.3393
 Frc consts  --      0.7820                 3.8839                 3.8310
 IR Inten    --      0.1049                12.4766                 0.6532

                     34                     35                     36
                      A                      A                      A
 Frequencies --   1028.6792              1030.8884              1043.5942
 Red. masses --      1.3197                 1.3324                 3.8678
 Frc consts  --      0.8228                 0.8343                 2.4819
 IR Inten    --      0.0360                 0.0168                 7.2949

                     37                     38                     39
                      A                      A                      A
 Frequencies --   1044.8622              1079.0619              1088.1597
 Red. masses --      3.5090                 2.3906                 2.4992
 Frc consts  --      2.2571                 1.6401                 1.7436
 IR Inten    --      0.6948                63.3350                13.4321

                     40                     41                     42
                      A                      A                      A
 Frequencies --   1117.6727              1122.3927              1205.4851
 Red. masses --      1.5961                 1.5960                 1.1059
 Frc consts  --      1.1747                 1.1846                 0.9468
 IR Inten    --      2.2523                 4.7450                 1.4815

                     43                     44                     45
                      A                      A                      A
 Frequencies --   1206.5504              1214.2692              1218.6821
 Red. masses --      1.1014                 1.1383                 1.1350
 Frc consts  --      0.9447                 0.9888                 0.9932
 IR Inten    --      1.0874                45.7577                41.1312

                     46                     47                     48
                      A                      A                      A
 Frequencies --   1220.3393              1346.2181              1351.3009
 Red. masses --      1.1475                 1.9715                 1.9285
 Frc consts  --      1.0068                 2.1051                 2.0748
 IR Inten    --     17.0624                 2.5844                 0.8088

                     49                     50                     51
                      A                      A                      A
 Frequencies --   1367.3205              1372.5126              1490.6399
 Red. masses --      2.3507                 3.0224                 2.1417
 Frc consts  --      2.5894                 3.3546                 2.8038
 IR Inten    --      8.5698                 8.4299                 7.3718

                     52                     53                     54
                      A                      A                      A
 Frequencies --   1494.2193              1519.9053              1521.3022
 Red. masses --      2.1671                 1.9365                 1.9545
 Frc consts  --      2.8508                 2.6357                 2.6652
 IR Inten    --     33.1099                 5.4821                 2.8637

                     55                     56                     57
                      A                      A                      A
 Frequencies --   1629.7604              1630.6018              1631.7959
 Red. masses --      5.0702                 5.0854                 5.2115
 Frc consts  --      7.9345                 7.9666                 8.1761
 IR Inten    --     11.4884                 9.6256                 0.3623

                     58                     59                     60
                      A                      A                      A
 Frequencies --   1637.1084              3203.8995              3207.2082
 Red. masses --      5.4425                 1.0898                 1.0896
 Frc consts  --      8.5941                 6.5913                 6.6032
 IR Inten    --      1.7088                 0.0040                 0.0762

                     61                     62                     63
                      A                      A                      A
 Frequencies --   3213.7362              3214.8392              3222.2921
 Red. masses --      1.0885                 1.0890                 1.0912
 Frc consts  --      6.6236                 6.6313                 6.6757
 IR Inten    --      0.3676                 0.0946                 1.0894

                     64                     65                     66
                      A                      A                      A
 Frequencies --   3223.8654              3230.2428              3231.8146
 Red. masses --      1.0914                 1.0946                 1.0955
 Frc consts  --      6.6834                 6.7297                 6.7414
 IR Inten    --      0.6070                 0.1672                 0.2479

                     67                     68                     69
                      A                      A                      A
 Frequencies --   3234.5300              3236.8373              3666.6220
 Red. masses --      1.0977                 1.0964                 1.0676
 Frc consts  --      6.7663                 6.7681                 8.4561
 IR Inten    --      2.2360                 2.2171               209.5792

 - Thermochemistry -
 -------------------
 Temperature     0.001 Kelvin.  Pressure   1.00000 Atm.
 Atom     1 has atomic number  8 and mass  15.99491

 Molecular mass:   203.05306 amu.
 Principal axes and moments of inertia in atomic units:
                           1         2         3
     Eigenvalues --  1469.800294747.558935152.54174
           X            0.99999  -0.00284   0.00245
           Y            0.00293   0.99935  -0.03587
           Z           -0.00234   0.03588   0.99935
 This molecule is an asymmetric top.
 Rotational symmetry number  1.
 Warning -- assumption of classical behavior for rotation
           may cause significant error
 Rotational temperatures (Kelvin)      0.05893     0.01824     0.01681
 Rotational constants (GHZ):           1.22788     0.38014     0.35026
 Zero-point vibrational energy     519675.8 (Joules/Mol)
                                  124.20549 (Kcal/Mol)
 Vibrational temperatures:     44.93    58.59    93.00   176.27   242.10
          (Kelvin)            268.37   319.37   374.20   435.07   483.51
                              583.95   588.96   612.44   681.30   710.27
                              730.14   894.08   896.24   986.14   995.42
                             1010.40  1032.48  1094.88  1096.96  1111.50
                             1220.05  1226.85  1359.63  1366.69  1422.41
                             1424.44  1452.38  1457.15  1480.04  1483.22
                             1501.50  1503.32  1552.53  1565.62  1608.08
                             1614.87  1734.42  1735.96  1747.06  1753.41
                             1755.80  1936.91  1944.22  1967.27  1974.74
                             2144.70  2149.85  2186.80  2188.81  2344.86
                             2346.07  2347.79  2355.43  4609.70  4614.46
                             4623.85  4625.44  4636.16  4638.42  4647.60
                             4649.86  4653.77  4657.09  5275.45

 Zero-point correction=                           0.197934 (Hartree/Particle)
 Thermal correction to Energy=                    0.197934
 Thermal correction to Enthalpy=                  0.197934
 Thermal correction to Gibbs Free Energy=         0.197934
 Sum of electronic and zero-point Energies=           -936.827617
 Sum of electronic and thermal Energies=              -936.827617
 Sum of electronic and thermal Enthalpies=            -936.827617
 Sum of electronic and thermal Free Energies=         -936.827617

                     E (Thermal)             CV                S
                      KCal/Mol        Cal/Mol-Kelvin    Cal/Mol-Kelvin
 Total                  124.205              5.962            -26.415
 Electronic               0.000              0.000              0.000
 Translational            0.000              2.981            -20.794
 Rotational               0.000              2.981             -5.621
 Vibrational            124.205              0.000              0.000

 Optimization completed.
    -- Stationary point found.
 Normal termination of Gaussian 16 at Mon Oct 14 01:54:45 2019.
