 Gaussian 16, Revision A.03,
 Gaussian 16:  ES64L-G16RevA.03 25-Dec-2016

 --------------------------------------------------------------
 #P opt freq b3lyp/6-31g(d) geom=connectivity temperature=0.001
 --------------------------------------------------------------

 -------------------
 Title Card Required
 -------------------
 Symbolic Z-matrix:
 Charge =  0 Multiplicity = 1

 SCF Done:  E(RB3LYP) =  -744.907784258     A.U. after   16 cycles
 SCF Done:  E(RB3LYP) =  -744.917339220     A.U. after   13 cycles
 SCF Done:  E(RB3LYP) =  -744.919921986     A.U. after   13 cycles
 SCF Done:  E(RB3LYP) =  -744.921044528     A.U. after   13 cycles
 SCF Done:  E(RB3LYP) =  -744.922305129     A.U. after   14 cycles
 SCF Done:  E(RB3LYP) =  -744.922532456     A.U. after   12 cycles
 SCF Done:  E(RB3LYP) =  -744.922576384     A.U. after   11 cycles
 SCF Done:  E(RB3LYP) =  -744.922578079     A.U. after    9 cycles
 SCF Done:  E(RB3LYP) =  -744.922578425     A.U. after    8 cycles
 SCF Done:  E(RB3LYP) =  -744.922578460     A.U. after    7 cycles
 Optimization completed.
    -- Stationary point found.
 Normal termination of Gaussian 16 at Mon Oct 14 01:52:16 2019.

 --------------------------------------------------------------------
 #P Geom=AllCheck Guess=TCheck SCRF=Check GenChk RB3LYP/6-31G(d) Freq
 --------------------------------------------------------------------

 Structure from the checkpoint file:  "33.chk"
 -------------------
 Title Card Required
 -------------------
 Charge =  0 Multiplicity = 1

                         Standard orientation:
 ---------------------------------------------------------------------
 Center     Atomic      Atomic             Coordinates (Angstroms)
 Number     Number       Type             X           Y           Z
 ---------------------------------------------------------------------
      1          8           0        2.198220    1.300211   -0.316282
      2         16           0        1.680597   -0.113306   -0.471416
      3          6           0        2.100818   -1.010010    1.079931
      4          6           0       -0.123647   -0.061984   -0.189845
      5          6           0       -0.911612   -1.192307   -0.415706
      6          6           0       -2.291680   -1.106745   -0.227755
      7          6           0       -2.871265    0.102990    0.165320
      8          6           0       -2.072747    1.230584    0.368419
      9          6           0       -0.690406    1.153222    0.186681
     10          1           0        3.187919   -1.123691    1.099322
     11          1           0        1.770322   -0.412474    1.933446
     12          1           0        1.619050   -1.991780    1.082455
     13          1           0       -0.459614   -2.127933   -0.738273
     14          1           0       -2.914961   -1.980844   -0.396005
     15          1           0       -3.947095    0.167296    0.303552
     16          1           0       -2.526811    2.172442    0.664682
     17          1           0       -0.040887    2.013684    0.321465
 ---------------------------------------------------------------------

 SCF Done:  E(RB3LYP) =  -744.922578460     A.U. after    1 cycles

 The electronic state is 1-A.
 Alpha  occ. eigenvalues --  -88.98796 -19.10479 -10.21846 -10.21340 -10.20973
 Alpha  occ. eigenvalues --  -10.20491 -10.20290 -10.20233 -10.20068  -8.03465
 Alpha  occ. eigenvalues --   -5.99869  -5.99780  -5.99209  -1.00131  -0.86752
 Alpha  occ. eigenvalues --   -0.78621  -0.75766  -0.74287  -0.65065  -0.61808
 Alpha  occ. eigenvalues --   -0.58571  -0.52604  -0.47133  -0.46448  -0.45041
 Alpha  occ. eigenvalues --   -0.44539  -0.43344  -0.42725  -0.40912  -0.37741
 Alpha  occ. eigenvalues --   -0.36491  -0.35809  -0.35127  -0.26719  -0.26552
 Alpha  occ. eigenvalues --   -0.26180  -0.22424
 Alpha virt. eigenvalues --   -0.02332  -0.01330   0.04098   0.05062   0.08180
 Alpha virt. eigenvalues --    0.10099   0.11825   0.13182   0.13891   0.14847
 Alpha virt. eigenvalues --    0.16060   0.16667   0.18392   0.20416   0.26969

 Mulliken charges:
               1
     1  O   -0.631086
     2  S    0.764703
     3  C   -0.626759
     4  C   -0.153376
     5  C   -0.154619
     6  C   -0.122622
     7  C   -0.125288
     8  C   -0.122076
     9  C   -0.144817
    10  H    0.194578
    11  H    0.202341
    12  H    0.178074
    13  H    0.140660
    14  H    0.138609
    15  H    0.138001
    16  H    0.140963
    17  H    0.182715
 Sum of Mulliken charges =  -0.00000

 Dipole moment (field-independent basis, Debye):
    X=             -2.3124    Y=             -2.9116    Z=              1.2309  Tot=              3.9167
 Quadrupole moment (field-independent basis, Debye-Ang):
   XX=            -58.0097   YY=            -57.6680   ZZ=            -60.9687
   XY=             -7.2674   XZ=              2.3366   YZ=              1.8084

  Exact polarizability: 123.131  -0.758  93.568  -1.663   6.105  50.819
 Approx polarizability: 181.965   6.873 170.120  -7.673  13.709  77.763

                      1                      2                      3
                      A                      A                      A
 Frequencies --     53.7250               121.4648               175.3290
 Red. masses --      3.9402                 3.6526                 2.8369
 Frc consts  --      0.0067                 0.0318                 0.0514
 IR Inten    --      3.0945                 1.3984                 5.4282

                      4                      5                      6
                      A                      A                      A
 Frequencies --    218.4349               258.6048               310.4655
 Red. masses --      1.2559                 3.8213                 5.1235
 Frc consts  --      0.0353                 0.1506                 0.2910
 IR Inten    --      1.1532                 0.5320                 3.7995

                      7                      8                      9
                      A                      A                      A
 Frequencies --    348.1225               414.0149               457.7327
 Red. masses --      5.2891                 3.0017                 6.9088
 Frc consts  --      0.3777                 0.3031                 0.8529
 IR Inten    --      5.8988                 0.0754                10.6475

                     10                     11                     12
                      A                      A                      A
 Frequencies --    506.4025               627.5291               652.7699
 Red. masses --      3.7563                 6.4189                 5.2943
 Frc consts  --      0.5675                 1.4893                 1.3292
 IR Inten    --     18.0356                 0.2175                17.1658

                     13                     14                     15
                      A                      A                      A
 Frequencies --    698.5307               707.1111               759.5711
 Red. masses --      6.4913                 2.6093                 1.4147
 Frc consts  --      1.8662                 0.7687                 0.4809
 IR Inten    --      2.1583                17.7118                36.8574

                     16                     17                     18
                      A                      A                      A
 Frequencies --    862.7618               930.1239               961.2973
 Red. masses --      1.2449                 1.3136                 1.4388
 Frc consts  --      0.5460                 0.6696                 0.7834
 IR Inten    --      0.2232                 1.6997                 7.7400

                     19                     20                     21
                      A                      A                      A
 Frequencies --    975.2453               981.9974              1006.2285
 Red. masses --      1.3313                 1.3235                 1.2856
 Frc consts  --      0.7460                 0.7520                 0.7669
 IR Inten    --     11.3651                19.4534                 0.6732

                     22                     23                     24
                      A                      A                      A
 Frequencies --   1013.8876              1048.2272              1071.3941
 Red. masses --      5.7466                 3.0115                 4.0310
 Frc consts  --      3.4805                 1.9496                 2.7262
 IR Inten    --      2.0132                 2.8390                60.0286

                     25                     26                     27
                      A                      A                      A
 Frequencies --   1099.8465              1109.2048              1193.0500
 Red. masses --      3.2535                 1.7817                 1.1137
 Frc consts  --      2.3188                 1.2916                 0.9340
 IR Inten    --     45.7458                13.5146                 0.2201

                     28                     29                     30
                      A                      A                      A
 Frequencies --   1204.3641              1337.0120              1356.1943
 Red. masses --      1.1567                 1.6181                 1.2202
 Frc consts  --      0.9885                 1.7042                 1.3223
 IR Inten    --      1.0696                 1.8872                 3.8506

                     31                     32                     33
                      A                      A                      A
 Frequencies --   1360.5329              1475.6004              1489.8449
 Red. masses --      3.3978                 1.0522                 2.1375
 Frc consts  --      3.7057                 1.3498                 2.7954
 IR Inten    --      1.4102                 5.4448                 8.5505

                     34                     35                     36
                      A                      A                      A
 Frequencies --   1492.8325              1525.1780              1643.1297
 Red. masses --      1.0607                 2.0435                 5.7252
 Frc consts  --      1.3927                 2.8006                 9.1072
 IR Inten    --     13.4449                 7.8816                 1.1825

                     37                     38                     39
                      A                      A                      A
 Frequencies --   1643.9719              3065.7980              3166.9694
 Red. masses --      5.3373                 1.0284                 1.1061
 Frc consts  --      8.4989                 5.6950                 6.5364
 IR Inten    --      1.7106                 5.8301                 6.6758

                     40                     41                     42
                      A                      A                      A
 Frequencies --   3171.6701              3176.4841              3187.8395
 Red. masses --      1.1074                 1.0875                 1.0870
 Frc consts  --      6.5634                 6.4649                 6.5085
 IR Inten    --      2.6280                 3.7601                 0.6783

                     43                     44                     45
                      A                      A                      A
 Frequencies --   3197.6781              3208.4138              3213.6239
 Red. masses --      1.0911                 1.0934                 1.0963
 Frc consts  --      6.5734                 6.6318                 6.6707
 IR Inten    --     21.7780                 8.3675                22.8094

 - Thermochemistry -
 -------------------
 Temperature     0.001 Kelvin.  Pressure   1.00000 Atm.
 Atom     1 has atomic number  8 and mass  15.99491

 Molecular mass:   140.02959 amu.
 Principal axes and moments of inertia in atomic units:
                           1         2         3
     Eigenvalues --   585.172471901.733772233.48125
           X            0.99971  -0.01868   0.01538
           Y            0.01867   0.99983   0.00109
           Z           -0.01540  -0.00081   0.99988
 This molecule is an asymmetric top.
 Rotational symmetry number  1.
 Warning -- assumption of classical behavior for rotation
           may cause significant error
 Rotational temperatures (Kelvin)      0.14801     0.04554     0.03878
 Rotational constants (GHZ):           3.08412     0.94900     0.80804
 Zero-point vibrational energy     349789.3 (Joules/Mol)
                                   83.60166 (Kcal/Mol)
 Vibrational temperatures:     77.30   174.76   252.26   314.28   372.07
          (Kelvin)            446.69   500.87   595.68   658.58   728.60
                              902.87   939.19  1005.03  1017.38  1092.85
                             1241.32  1338.24  1383.09  1403.16  1412.88
                             1447.74  1458.76  1508.17  1541.50  1582.43
                             1595.90  1716.53  1732.81  1923.66  1951.26
                             1957.50  2123.06  2143.55  2147.85  2194.39
                             2364.10  2365.31  4411.00  4556.56  4563.33
                             4570.25  4586.59  4600.75  4616.19  4623.69

 Zero-point correction=                           0.133228 (Hartree/Particle)
 Thermal correction to Energy=                    0.133228
 Thermal correction to Enthalpy=                  0.133228
 Thermal correction to Gibbs Free Energy=         0.133228
 Sum of electronic and zero-point Energies=           -744.789351
 Sum of electronic and thermal Energies=              -744.789351
 Sum of electronic and thermal Enthalpies=            -744.789351
 Sum of electronic and thermal Free Energies=         -744.789351

                     E (Thermal)             CV                S
                      KCal/Mol        Cal/Mol-Kelvin    Cal/Mol-Kelvin
 Total                   83.602              5.962            -30.178
 Electronic               0.000              0.000              0.000
 Translational            0.000              2.981            -21.902
 Rotational               0.000              2.981             -8.276
 Vibrational             83.602              0.000              0.000

 Optimization completed.
    -- Stationary point found.
 Normal termination of Gaussian 16 at Mon Oct 14 01:52:38 2019.
