 Gaussian 16, Revision A.03,
 Gaussian 16:  ES64L-G16RevA.03 25-Dec-2016

 --------------------------------------------------------------
 #P opt freq b3lyp/6-31g(d) geom=connectivity temperature=0.001
 --------------------------------------------------------------

 -------------------
 Title Card Required
 -------------------
 Symbolic Z-matrix:
 Charge =  1 Multiplicity = 1

 SCF Done:  E(RB3LYP) =  -745.276811448     A.U. after   15 cycles
 SCF Done:  E(RB3LYP) =  -745.285552754     A.U. after   12 cycles
 SCF Done:  E(RB3LYP) =  -745.286880275     A.U. after   11 cycles
 SCF Done:  E(RB3LYP) =  -745.287050399     A.U. after   11 cycles
 SCF Done:  E(RB3LYP) =  -745.287065737     A.U. after   10 cycles
 SCF Done:  E(RB3LYP) =  -745.287068125     A.U. after    9 cycles
 SCF Done:  E(RB3LYP) =  -745.287068968     A.U. after    8 cycles
 SCF Done:  E(RB3LYP) =  -745.287069251     A.U. after    8 cycles
 SCF Done:  E(RB3LYP) =  -745.287069432     A.U. after    8 cycles
 SCF Done:  E(RB3LYP) =  -745.287069493     A.U. after    7 cycles
 SCF Done:  E(RB3LYP) =  -745.287069513     A.U. after    7 cycles
 Optimization completed.
    -- Stationary point found.
 Normal termination of Gaussian 16 at Mon Oct 14 01:53:53 2019.

 --------------------------------------------------------------------
 #P Geom=AllCheck Guess=TCheck SCRF=Check GenChk RB3LYP/6-31G(d) Freq
 --------------------------------------------------------------------

 Structure from the checkpoint file:  "33_p.chk"
 -------------------
 Title Card Required
 -------------------
 Charge =  1 Multiplicity = 1

                         Standard orientation:
 ---------------------------------------------------------------------
 Center     Atomic      Atomic             Coordinates (Angstroms)
 Number     Number       Type             X           Y           Z
 ---------------------------------------------------------------------
      1          8           0        2.191260    0.214025   -1.296646
      2         16           0        1.548860   -0.547857    0.023262
      3          6           0        2.268832    0.557640    1.260930
      4          6           0       -0.177164   -0.170703    0.010134
      5          6           0       -1.034313   -1.276921    0.117184
      6          6           0       -2.410729   -1.054302    0.122062
      7          6           0       -2.906311    0.245325   -0.000117
      8          6           0       -2.036852    1.337368   -0.127272
      9          6           0       -0.660594    1.140920   -0.120543
     10          1           0        3.347483    0.387444    1.255598
     11          1           0        2.036283    1.593960    1.007422
     12          1           0        1.839970    0.283150    2.227928
     13          1           0       -0.637608   -2.284598    0.202033
     14          1           0       -3.090911   -1.894763    0.213189
     15          1           0       -3.978991    0.412871   -0.002937
     16          1           0       -2.435272    2.341254   -0.233390
     17          1           0        0.014362    1.982946   -0.237017
     18          1           0        2.335624   -0.444707   -2.006128
 ---------------------------------------------------------------------

 SCF Done:  E(RB3LYP) =  -745.287069513     A.U. after    1 cycles

 The electronic state is 1-A.
 Alpha  occ. eigenvalues --  -89.19987 -19.38982 -10.40229 -10.39950 -10.37160
 Alpha  occ. eigenvalues --  -10.36950 -10.35439 -10.35232 -10.35101  -8.24995
 Alpha  occ. eigenvalues --   -6.21556  -6.21139  -6.20635  -1.25637  -1.04613
 Alpha  occ. eigenvalues --   -0.99797  -0.91851  -0.91338  -0.85202  -0.77735
 Alpha  occ. eigenvalues --   -0.76753  -0.72101  -0.68666  -0.64466  -0.64107
 Alpha  occ. eigenvalues --   -0.61903  -0.60951  -0.60717  -0.59016  -0.58721
 Alpha  occ. eigenvalues --   -0.53986  -0.53165  -0.52202  -0.50782  -0.49128
 Alpha  occ. eigenvalues --   -0.42580  -0.41637
 Alpha virt. eigenvalues --   -0.23392  -0.16626  -0.16116  -0.14212  -0.10799
 Alpha virt. eigenvalues --   -0.08089  -0.05587  -0.02932  -0.02430  -0.02103
 Alpha virt. eigenvalues --   -0.00705   0.00704   0.02822   0.05061   0.06927

 Mulliken charges:
               1
     1  O   -0.630976
     2  S    0.782470
     3  C   -0.627603
     4  C   -0.157825
     5  C   -0.130296
     6  C   -0.117555
     7  C   -0.102763
     8  C   -0.115622
     9  C   -0.114813
    10  H    0.260379
    11  H    0.254531
    12  H    0.252258
    13  H    0.194477
    14  H    0.196841
    15  H    0.198879
    16  H    0.196473
    17  H    0.188875
    18  H    0.472270
 Sum of Mulliken charges =   1.00000

 Dipole moment (field-independent basis, Debye):
    X=              2.3374    Y=             -0.7389    Z=              0.3544  Tot=              2.4769
 Quadrupole moment (field-independent basis, Debye-Ang):
   XX=            -29.0329   YY=            -47.9935   ZZ=            -51.6449
   XY=             -1.8742   XZ=              0.4049   YZ=              2.5977

  Exact polarizability: 130.101   0.562  87.072   0.020  -1.769  53.324
 Approx polarizability: 197.367   1.068 153.011  -4.569  -6.726  81.419

                      1                      2                      3
                      A                      A                      A
 Frequencies --     52.3582               109.2077               173.5097
 Red. masses --      3.7800                 3.6826                 2.8974
 Frc consts  --      0.0061                 0.0259                 0.0514
 IR Inten    --      0.3587                 1.0880                 1.5015

                      4                      5                      6
                      A                      A                      A
 Frequencies --    195.0229               240.8667               278.1811
 Red. masses --      1.1879                 2.2061                 4.0026
 Frc consts  --      0.0266                 0.0754                 0.1825
 IR Inten    --      0.7464                66.7455                17.9920

                      7                      8                      9
                      A                      A                      A
 Frequencies --    312.5340               375.7250               407.4048
 Red. masses --      1.8241                 2.8048                 2.8932
 Frc consts  --      0.1050                 0.2333                 0.2829
 IR Inten    --     49.5535                 6.1981                 2.5379

                     10                     11                     12
                      A                      A                      A
 Frequencies --    440.2509               482.8068               620.7325
 Red. masses --      6.2968                 4.0639                 6.4716
 Frc consts  --      0.7191                 0.5581                 1.4692
 IR Inten    --     32.6311                12.6250                 0.3331

                     13                     14                     15
                      A                      A                      A
 Frequencies --    685.0451               685.3780               721.1086
 Red. masses --      4.6544                 2.9801                 6.3250
 Frc consts  --      1.2869                 0.8248                 1.9378
 IR Inten    --      5.2559                11.5455                 8.4312

                     16                     17                     18
                      A                      A                      A
 Frequencies --    761.3338               785.8569               846.2953
 Red. masses --      1.3898                13.3462                 1.2593
 Frc consts  --      0.4746                 4.8562                 0.5314
 IR Inten    --     48.4853                97.3637                 0.0677

                     19                     20                     21
                      A                      A                      A
 Frequencies --    947.0981               990.5456              1005.9996
 Red. masses --      1.2779                 1.3594                 1.2715
 Frc consts  --      0.6753                 0.7859                 0.7581
 IR Inten    --      0.2877                 0.1479                 2.3784

                     22                     23                     24
                      A                      A                      A
 Frequencies --   1010.6698              1023.5188              1034.4274
 Red. masses --      5.4130                 1.3392                 1.3370
 Frc consts  --      3.2577                 0.8266                 0.8429
 IR Inten    --      9.9998                24.5472                 0.0486

                     25                     26                     27
                      A                      A                      A
 Frequencies --   1043.6219              1085.4008              1122.6752
 Red. masses --      3.3775                 2.6160                 1.5921
 Frc consts  --      2.1674                 1.8158                 1.1823
 IR Inten    --      7.7103                49.8441                 7.0703

                     28                     29                     30
                      A                      A                      A
 Frequencies --   1208.0778              1219.0112              1229.7232
 Red. masses --      1.1013                 1.1591                 1.1279
 Frc consts  --      0.9470                 1.0148                 1.0050
 IR Inten    --      0.6298                 4.5191               108.9086

                     31                     32                     33
                      A                      A                      A
 Frequencies --   1350.0816              1374.0740              1391.3685
 Red. masses --      1.7294                 3.1904                 1.1632
 Frc consts  --      1.8572                 3.5490                 1.3267
 IR Inten    --      1.3847                 8.6118                 6.3269

                     34                     35                     36
                      A                      A                      A
 Frequencies --   1466.8383              1477.3032              1492.5106
 Red. masses --      1.0539                 1.0530                 2.1248
 Frc consts  --      1.3360                 1.3539                 2.7887
 IR Inten    --     11.5622                21.5869                22.7511

                     37                     38                     39
                      A                      A                      A
 Frequencies --   1519.9427              1628.9301              1631.0490
 Red. masses --      1.9165                 5.0351                 5.1331
 Frc consts  --      2.6086                 7.8716                 8.0457
 IR Inten    --      1.7401                21.3197                 0.8431

                     40                     41                     42
                      A                      A                      A
 Frequencies --   3085.8973              3192.2923              3197.8835
 Red. masses --      1.0280                 1.1085                 1.1092
 Frc consts  --      5.7680                 6.6556                 6.6834
 IR Inten    --      5.0726                 4.1111                 3.9211

                     43                     44                     45
                      A                      A                      A
 Frequencies --   3208.2991              3213.9191              3220.1816
 Red. masses --      1.0900                 1.0886                 1.0913
 Frc consts  --      6.6106                 6.6250                 6.6675
 IR Inten    --      0.1363                 0.1260                 0.0412

                     46                     47                     48
                      A                      A                      A
 Frequencies --   3229.6886              3235.4205              3666.4794
 Red. masses --      1.0948                 1.0982                 1.0676
 Frc consts  --      6.7284                 6.7731                 8.4561
 IR Inten    --      0.0998                 0.3864               209.0847

 - Thermochemistry -
 -------------------
 Temperature     0.001 Kelvin.  Pressure   1.00000 Atm.
 Atom     1 has atomic number  8 and mass  15.99491

 Molecular mass:   141.03741 amu.
 Principal axes and moments of inertia in atomic units:
                           1         2         3
     Eigenvalues --   589.362582033.580742205.85507
           X            0.99988   0.00929   0.01223
           Y           -0.00974   0.99925   0.03741
           Z           -0.01188  -0.03753   0.99922
 This molecule is an asymmetric top.
 Rotational symmetry number  1.
 Warning -- assumption of classical behavior for rotation
           may cause significant error
 Rotational temperatures (Kelvin)      0.14696     0.04259     0.03927
 Rotational constants (GHZ):           3.06219     0.88747     0.81816
 Zero-point vibrational energy     380870.3 (Joules/Mol)
                                   91.03019 (Kcal/Mol)
 Vibrational temperatures:     75.33   157.13   249.64   280.59   346.55
          (Kelvin)            400.24   449.67   540.58   586.16   633.42
                              694.65   893.10   985.63   986.11  1037.51
                             1095.39  1130.67  1217.63  1362.66  1425.17
                             1447.41  1454.13  1472.62  1488.31  1501.54
                             1561.65  1615.28  1738.15  1753.89  1769.30
                             1942.47  1976.99  2001.87  2110.45  2125.51
                             2147.39  2186.86  2343.67  2346.72  4439.92
                             4593.00  4601.04  4616.03  4624.11  4633.12
                             4646.80  4655.05  5275.25

 Zero-point correction=                           0.145066 (Hartree/Particle)
 Thermal correction to Energy=                    0.145066
 Thermal correction to Enthalpy=                  0.145066
 Thermal correction to Gibbs Free Energy=         0.145066
 Sum of electronic and zero-point Energies=           -745.142004
 Sum of electronic and thermal Energies=              -745.142004
 Sum of electronic and thermal Enthalpies=            -745.142004
 Sum of electronic and thermal Free Energies=         -745.142004

                     E (Thermal)             CV                S
                      KCal/Mol        Cal/Mol-Kelvin    Cal/Mol-Kelvin
 Total                   91.030              5.962            -30.095
 Electronic               0.000              0.000              0.000
 Translational            0.000              2.981            -21.881
 Rotational               0.000              2.981             -8.215
 Vibrational             91.030              0.000              0.000

 Optimization completed.
    -- Stationary point found.
 Normal termination of Gaussian 16 at Mon Oct 14 01:54:15 2019.
