 Gaussian 16, Revision A.03,
 Gaussian 16:  ES64L-G16RevA.03 25-Dec-2016

 --------------------------------------------------------------
 #P opt freq b3lyp/6-31g(d) geom=connectivity temperature=0.001
 --------------------------------------------------------------

 -------------------
 Title Card Required
 -------------------
 Symbolic Z-matrix:
 Charge =  0 Multiplicity = 1

 SCF Done:  E(RB3LYP) =  -782.894137041     A.U. after   17 cycles
 SCF Done:  E(RB3LYP) =  -782.944961362     A.U. after   14 cycles
 SCF Done:  E(RB3LYP) =  -782.983486828     A.U. after   14 cycles
 SCF Done:  E(RB3LYP) =  -782.990793660     A.U. after   13 cycles
 SCF Done:  E(RB3LYP) =  -782.991869983     A.U. after   13 cycles
 SCF Done:  E(RB3LYP) =  -782.992330643     A.U. after   14 cycles
 SCF Done:  E(RB3LYP) =  -782.992411376     A.U. after   11 cycles
 SCF Done:  E(RB3LYP) =  -782.992431053     A.U. after   11 cycles
 SCF Done:  E(RB3LYP) =  -782.992432695     A.U. after   10 cycles
 SCF Done:  E(RB3LYP) =  -782.992433284     A.U. after    9 cycles
 SCF Done:  E(RB3LYP) =  -782.992433671     A.U. after    8 cycles
 SCF Done:  E(RB3LYP) =  -782.992433893     A.U. after    8 cycles
 SCF Done:  E(RB3LYP) =  -782.992433975     A.U. after    8 cycles
 Optimization completed.
    -- Stationary point found.
 Normal termination of Gaussian 16 at Mon Oct 14 01:54:19 2019.

 --------------------------------------------------------------------
 #P Geom=AllCheck Guess=TCheck SCRF=Check GenChk RB3LYP/6-31G(d) Freq
 --------------------------------------------------------------------

 Structure from the checkpoint file:  "34.chk"
 -------------------
 Title Card Required
 -------------------
 Charge =  0 Multiplicity = 1

                         Standard orientation:
 ---------------------------------------------------------------------
 Center     Atomic      Atomic             Coordinates (Angstroms)
 Number     Number       Type             X           Y           Z
 ---------------------------------------------------------------------
      1          8           0       -1.933714   -1.729212   -0.083000
      2         16           0       -1.512594   -0.387932   -0.648854
      3          6           0       -2.214416    0.879556    0.449607
      4          6           0       -1.594760    1.904734    1.027711
      5          6           0        0.255728   -0.159587   -0.277321
      6          6           0        1.004029    0.792503   -0.972066
      7          6           0        2.370538    0.906551   -0.707019
      8          6           0        2.974690    0.060395    0.226157
      9          6           0        2.217013   -0.904380    0.895923
     10          6           0        0.849909   -1.021029    0.643273
     11          1           0       -3.285076    0.712516    0.552881
     12          1           0       -2.156294    2.617758    1.626886
     13          1           0       -0.526556    2.074671    0.933992
     14          1           0        0.530561    1.433710   -1.711819
     15          1           0        2.963681    1.646653   -1.237195
     16          1           0        4.039961    0.145585    0.422668
     17          1           0        2.693171   -1.568928    1.611826
     18          1           0        0.235377   -1.773811    1.128849
 ---------------------------------------------------------------------

 SCF Done:  E(RB3LYP) =  -782.992433975     A.U. after    1 cycles

 The electronic state is 1-A.
 Alpha  occ. eigenvalues --  -88.98992 -19.10411 -10.22121 -10.22095 -10.21209
 Alpha  occ. eigenvalues --  -10.20908 -10.20731 -10.20591 -10.20484 -10.20382
 Alpha  occ. eigenvalues --   -8.03644  -6.00037  -5.99983  -5.99383  -1.00061
 Alpha  occ. eigenvalues --   -0.87043  -0.80320  -0.76495  -0.76029  -0.68975
 Alpha  occ. eigenvalues --   -0.62052  -0.61401  -0.57089  -0.52366  -0.48174
 Alpha  occ. eigenvalues --   -0.47362  -0.46532  -0.45310  -0.43637  -0.42052
 Alpha  occ. eigenvalues --   -0.38946  -0.38638  -0.37345  -0.36320  -0.35806
 Alpha  occ. eigenvalues --   -0.29338  -0.27029  -0.26522  -0.26202  -0.22258
 Alpha virt. eigenvalues --   -0.03262  -0.01613  -0.01398   0.03900   0.07227
 Alpha virt. eigenvalues --    0.08495   0.10790   0.12233   0.13337   0.13684
 Alpha virt. eigenvalues --    0.15024   0.15772   0.17511   0.19534   0.22027

 Mulliken charges:
               1
     1  O   -0.632638
     2  S    0.783926
     3  C   -0.309326
     4  C   -0.302040
     5  C   -0.161764
     6  C   -0.156868
     7  C   -0.124945
     8  C   -0.124071
     9  C   -0.123863
    10  C   -0.131013
    11  H    0.187443
    12  H    0.164498
    13  H    0.172719
    14  H    0.150635
    15  H    0.140680
    16  H    0.139828
    17  H    0.142859
    18  H    0.183940
 Sum of Mulliken charges =  -0.00000

 Dipole moment (field-independent basis, Debye):
    X=              2.2736    Y=              3.5034    Z=              0.4171  Tot=              4.1973
 Quadrupole moment (field-independent basis, Debye-Ang):
   XX=            -59.9080   YY=            -67.0323   ZZ=            -63.7927
   XY=             -6.9263   XZ=             -0.2969   YZ=             -1.8580

  Exact polarizability: 129.548   4.716  94.810   3.567  -7.933  70.945
 Approx polarizability: 193.707  23.206 168.714  12.217 -21.931 118.627

                      1                      2                      3
                      A                      A                      A
 Frequencies --     48.2547                73.3564                97.7688
 Red. masses --      4.1611                 2.2887                 4.0982
 Frc consts  --      0.0057                 0.0073                 0.0231
 IR Inten    --      1.4776                 1.2591                 0.7012

                      4                      5                      6
                      A                      A                      A
 Frequencies --    178.1120               224.9536               282.8687
 Red. masses --      5.7207                 4.5042                 4.0588
 Frc consts  --      0.1069                 0.1343                 0.1913
 IR Inten    --      6.0446                 1.8849                 3.7691

                      7                      8                      9
                      A                      A                      A
 Frequencies --    324.5125               402.2610               414.8123
 Red. masses --      4.7671                 3.6943                 3.0778
 Frc consts  --      0.2958                 0.3522                 0.3120
 IR Inten    --      3.1392                 0.0618                 0.4064

                     10                     11                     12
                      A                      A                      A
 Frequencies --    449.6514               506.5709               612.3697
 Red. masses --      5.9630                 3.4837                 3.0158
 Frc consts  --      0.7103                 0.5267                 0.6663
 IR Inten    --     12.3884                12.8472                17.0240

                     13                     14                     15
                      A                      A                      A
 Frequencies --    627.2904               679.8406               703.1955
 Red. masses --      6.4338                 2.8056                 4.5616
 Frc consts  --      1.4916                 0.7640                 1.3290
 IR Inten    --      0.0341                25.0661                13.5571

                     16                     17                     18
                      A                      A                      A
 Frequencies --    707.6630               762.3039               864.6815
 Red. masses --      2.8561                 1.4555                 1.2444
 Frc consts  --      0.8427                 0.4983                 0.5482
 IR Inten    --     21.0653                31.5457                 0.1134

                     19                     20                     21
                      A                      A                      A
 Frequencies --    933.3580               959.4040               978.6050
 Red. masses --      1.3212                 1.3632                 1.3416
 Frc consts  --      0.6782                 0.7393                 0.7570
 IR Inten    --      1.6016                16.7497                 0.4407

                     22                     23                     24
                      A                      A                      A
 Frequencies --   1004.9564              1005.5981              1014.0224
 Red. masses --      1.0838                 1.3060                 5.4029
 Frc consts  --      0.6449                 0.7781                 3.2732
 IR Inten    --     24.5117                 0.2221                 4.5607

                     25                     26                     27
                      A                      A                      A
 Frequencies --   1040.6564              1047.7381              1059.5981
 Red. masses --      1.3259                 3.1837                 6.2353
 Frc consts  --      0.8460                 2.0592                 4.1247
 IR Inten    --      2.6795                 6.2424                83.9268

                     28                     29                     30
                      A                      A                      A
 Frequencies --   1095.4372              1107.4786              1193.6137
 Red. masses --      2.9918                 1.6295                 1.1129
 Frc consts  --      2.1152                 1.1776                 0.9342
 IR Inten    --     33.2895                 1.0387                 0.1362

                     31                     32                     33
                      A                      A                      A
 Frequencies --   1204.5932              1298.9819              1338.5935
 Red. masses --      1.1564                 1.2450                 1.6578
 Frc consts  --      0.9886                 1.2378                 1.7501
 IR Inten    --      1.5033                13.9442                 1.3489

                     34                     35                     36
                      A                      A                      A
 Frequencies --   1360.4577              1441.3452              1489.9226
 Red. masses --      3.4963                 1.2018                 2.1525
 Frc consts  --      3.8127                 1.4710                 2.8153
 IR Inten    --      2.3033                 8.9103                11.4614

                     37                     38                     39
                      A                      A                      A
 Frequencies --   1524.6704              1642.4499              1642.8375
 Red. masses --      2.0438                 5.6384                 5.3693
 Frc consts  --      2.7993                 8.9617                 8.5379
 IR Inten    --      5.6485                 0.2282                 1.1842

                     40                     41                     42
                      A                      A                      A
 Frequencies --   1685.3516              3163.8420              3182.7996
 Red. masses --      4.2149                 1.0583                 1.0860
 Frc consts  --      7.0538                 6.2417                 6.4821
 IR Inten    --      2.4708                 5.5802                 1.0256

                     43                     44                     45
                      A                      A                      A
 Frequencies --   3189.8257              3190.2461              3199.5777
 Red. masses --      1.0940                 1.0881                 1.0916
 Frc consts  --      6.5587                 6.5249                 6.5838
 IR Inten    --      4.6025                 1.8884                19.8343

                     46                     47                     48
                      A                      A                      A
 Frequencies --   3209.9672              3215.2443              3250.8176
 Red. masses --      1.0944                 1.0958                 1.1150
 Frc consts  --      6.6437                 6.6744                 6.9424
 IR Inten    --     10.6963                18.8103                 3.6284

 - Thermochemistry -
 -------------------
 Temperature     0.001 Kelvin.  Pressure   1.00000 Atm.
 Atom     1 has atomic number  8 and mass  15.99491

 Molecular mass:   152.02959 amu.
 Principal axes and moments of inertia in atomic units:
                           1         2         3
     Eigenvalues --   863.871012141.705962474.05727
           X            0.99976  -0.02051  -0.00832
           Y            0.02031   0.99952  -0.02330
           Z            0.00880   0.02312   0.99969
 This molecule is an asymmetric top.
 Rotational symmetry number  1.
 Warning -- assumption of classical behavior for rotation
           may cause significant error
 Rotational temperatures (Kelvin)      0.10026     0.04044     0.03501
 Rotational constants (GHZ):           2.08913     0.84267     0.72947
 Zero-point vibrational energy     362662.6 (Joules/Mol)
                                   86.67845 (Kcal/Mol)
 Vibrational temperatures:     69.43   105.54   140.67   256.26   323.66
          (Kelvin)            406.98   466.90   578.76   596.82   646.95
                              728.84   881.06   902.53   978.14  1011.74
                             1018.17  1096.79  1244.08  1342.89  1380.37
                             1407.99  1445.91  1446.83  1458.95  1497.27
                             1507.46  1524.53  1576.09  1593.41  1717.34
                             1733.14  1868.95  1925.94  1957.40  2073.77
                             2143.67  2193.66  2363.12  2363.68  2424.84
                             4552.06  4579.34  4589.45  4590.05  4603.48
                             4618.43  4626.02  4677.20

 Zero-point correction=                           0.138131 (Hartree/Particle)
 Thermal correction to Energy=                    0.138131
 Thermal correction to Enthalpy=                  0.138131
 Thermal correction to Gibbs Free Energy=         0.138131
 Sum of electronic and zero-point Energies=           -782.854303
 Sum of electronic and thermal Energies=              -782.854303
 Sum of electronic and thermal Enthalpies=            -782.854303
 Sum of electronic and thermal Free Energies=         -782.854303

                     E (Thermal)             CV                S
                      KCal/Mol        Cal/Mol-Kelvin    Cal/Mol-Kelvin
 Total                   86.678              5.962            -29.326
 Electronic               0.000              0.000              0.000
 Translational            0.000              2.981            -21.657
 Rotational               0.000              2.981             -7.669
 Vibrational             86.678              0.000              0.000

 Optimization completed.
    -- Stationary point found.
 Normal termination of Gaussian 16 at Mon Oct 14 01:54:45 2019.
