 Gaussian 16, Revision A.03,
 Gaussian 16:  ES64L-G16RevA.03 25-Dec-2016

 --------------------------------------------------------------
 #P opt freq b3lyp/6-31g(d) geom=connectivity temperature=0.001
 --------------------------------------------------------------

 -------------------
 Title Card Required
 -------------------
 Symbolic Z-matrix:
 Charge =  1 Multiplicity = 1

 SCF Done:  E(RB3LYP) =  -783.263283075     A.U. after   15 cycles
 SCF Done:  E(RB3LYP) =  -783.315093796     A.U. after   13 cycles
 SCF Done:  E(RB3LYP) =  -783.354058756     A.U. after   13 cycles
 SCF Done:  E(RB3LYP) =  -783.360253979     A.U. after   12 cycles
 SCF Done:  E(RB3LYP) =  -783.360584258     A.U. after   12 cycles
 SCF Done:  E(RB3LYP) =  -783.360700112     A.U. after   11 cycles
 SCF Done:  E(RB3LYP) =  -783.360745895     A.U. after   11 cycles
 SCF Done:  E(RB3LYP) =  -783.360760003     A.U. after   11 cycles
 SCF Done:  E(RB3LYP) =  -783.360763705     A.U. after   10 cycles
 SCF Done:  E(RB3LYP) =  -783.360764373     A.U. after    8 cycles
 SCF Done:  E(RB3LYP) =  -783.360764513     A.U. after    7 cycles
 SCF Done:  E(RB3LYP) =  -783.360764682     A.U. after    8 cycles
 SCF Done:  E(RB3LYP) =  -783.360764723     A.U. after    7 cycles
 Optimization completed.
    -- Stationary point found.
 Normal termination of Gaussian 16 at Mon Oct 14 01:54:24 2019.

 --------------------------------------------------------------------
 #P Geom=AllCheck Guess=TCheck SCRF=Check GenChk RB3LYP/6-31G(d) Freq
 --------------------------------------------------------------------

 Structure from the checkpoint file:  "34_p.chk"
 -------------------
 Title Card Required
 -------------------
 Charge =  1 Multiplicity = 1

                         Standard orientation:
 ---------------------------------------------------------------------
 Center     Atomic      Atomic             Coordinates (Angstroms)
 Number     Number       Type             X           Y           Z
 ---------------------------------------------------------------------
      1          8           0       -1.897189   -1.186388    1.222058
      2         16           0       -1.382568   -0.714668   -0.281370
      3          6           0       -2.308994    0.805525   -0.362551
      4          6           0       -1.780581    1.974863   -0.715981
      5          6           0        0.314598   -0.263538   -0.083374
      6          6           0        1.209320   -0.834851   -1.001252
      7          6           0        2.565768   -0.538100   -0.877798
      8          6           0        3.006871    0.289661    0.157423
      9          6           0        2.102022    0.834395    1.078423
     10          6           0        0.741978    0.566009    0.966538
     11          1           0       -3.366211    0.628237   -0.185109
     12          1           0       -2.428416    2.841602   -0.812880
     13          1           0       -0.724393    2.116759   -0.921065
     14          1           0        0.855865   -1.489189   -1.792923
     15          1           0        3.274742   -0.960766   -1.582131
     16          1           0        4.065833    0.508635    0.254708
     17          1           0        2.459683    1.466098    1.885242
     18          1           0        0.033039    0.972768    1.680252
     19          1           0       -1.977432   -2.162135    1.230792
 ---------------------------------------------------------------------

 SCF Done:  E(RB3LYP) =  -783.360764723     A.U. after    1 cycles

 The electronic state is 1-A.
 Alpha  occ. eigenvalues --  -89.19623 -19.38394 -10.40251 -10.39823 -10.38068
 Alpha  occ. eigenvalues --  -10.37017 -10.36716 -10.35341 -10.35075 -10.34994
 Alpha  occ. eigenvalues --   -8.24604  -6.21155  -6.20773  -6.20242  -1.24997
 Alpha  occ. eigenvalues --   -1.04577  -1.00121  -0.93617  -0.91337  -0.88570
 Alpha  occ. eigenvalues --   -0.78639  -0.77319  -0.74579  -0.71667  -0.67801
 Alpha  occ. eigenvalues --   -0.66413  -0.63983  -0.61736  -0.61636  -0.59548
 Alpha  occ. eigenvalues --   -0.58716  -0.56616  -0.53775  -0.52868  -0.52142
 Alpha  occ. eigenvalues --   -0.50563  -0.50223  -0.45437  -0.42466  -0.41486
 Alpha virt. eigenvalues --   -0.23560  -0.18617  -0.16402  -0.15921  -0.11540
 Alpha virt. eigenvalues --   -0.09926  -0.07179  -0.03903  -0.02892  -0.01138
 Alpha virt. eigenvalues --   -0.00506  -0.00285   0.01685   0.04355   0.05120

 Mulliken charges:
               1
     1  O   -0.633841
     2  S    0.809088
     3  C   -0.300971
     4  C   -0.272682
     5  C   -0.176169
     6  C   -0.126607
     7  C   -0.120629
     8  C   -0.103096
     9  C   -0.118983
    10  C   -0.114514
    11  H    0.252895
    12  H    0.235800
    13  H    0.215541
    14  H    0.195208
    15  H    0.196396
    16  H    0.198080
    17  H    0.195966
    18  H    0.199256
    19  H    0.469263
 Sum of Mulliken charges =   1.00000

 Dipole moment (field-independent basis, Debye):
    X=             -1.6604    Y=             -0.3851    Z=             -0.7430  Tot=              1.8594
 Quadrupole moment (field-independent basis, Debye-Ang):
   XX=            -34.2862   YY=            -47.4441   ZZ=            -58.5898
   XY=              1.6152   XZ=              0.5521   YZ=              0.0683

  Exact polarizability: 135.579   3.053  88.353  -3.700   8.880  75.237
 Approx polarizability: 206.687  16.179 147.305 -11.724  21.551 130.990

                      1                      2                      3
                      A                      A                      A
 Frequencies --     53.4628                96.2058               110.3287
 Red. masses --      3.9822                 4.2382                 2.3870
 Frc consts  --      0.0067                 0.0231                 0.0171
 IR Inten    --      0.2595                 0.4081                 0.3958

                      4                      5                      6
                      A                      A                      A
 Frequencies --    158.3092               222.5015               256.5639
 Red. masses --      5.1553                 3.4007                 3.4639
 Frc consts  --      0.0761                 0.0992                 0.1343
 IR Inten    --      1.9671                10.7612                43.4182

                      7                      8                      9
                      A                      A                      A
 Frequencies --    319.2634               357.8447               390.5949
 Red. masses --      1.7935                 2.3758                 3.0874
 Frc consts  --      0.1077                 0.1792                 0.2775
 IR Inten    --     49.3995                11.2893                30.8913

                     10                     11                     12
                      A                      A                      A
 Frequencies --    411.0143               465.6107               497.6814
 Red. masses --      2.9888                 4.4796                 3.8172
 Frc consts  --      0.2975                 0.5722                 0.5570
 IR Inten    --      0.0494                 8.8194                 8.8173

                     13                     14                     15
                      A                      A                      A
 Frequencies --    620.5153               624.0718               683.8110
 Red. masses --      5.9064                 2.2054                 2.9989
 Frc consts  --      1.3399                 0.5061                 0.8262
 IR Inten    --      1.4232                20.5571                 5.2568

                     16                     17                     18
                      A                      A                      A
 Frequencies --    692.1217               718.3714               763.1176
 Red. masses --      2.8954                 6.2582                 1.3671
 Frc consts  --      0.8172                 1.9028                 0.4691
 IR Inten    --     19.8846                 9.2242                52.8340

                     19                     20                     21
                      A                      A                      A
 Frequencies --    775.8199               852.1008               951.0740
 Red. masses --     13.6181                 1.2541                 1.2767
 Frc consts  --      4.8294                 0.5365                 0.6804
 IR Inten    --     97.2914                 0.1043                 0.0912

                     22                     23                     24
                      A                      A                      A
 Frequencies --    966.1688               992.4954              1011.1009
 Red. masses --      1.1038                 1.3578                 6.0969
 Frc consts  --      0.6071                 0.7880                 3.6724
 IR Inten    --     20.6473                 0.1857                 4.1829

                     25                     26                     27
                      A                      A                      A
 Frequencies --   1016.3331              1034.1573              1038.6984
 Red. masses --      1.2975                 1.3345                 1.3847
 Frc consts  --      0.7896                 0.8409                 0.8802
 IR Inten    --     35.1542                 0.0308                 1.6927

                     28                     29                     30
                      A                      A                      A
 Frequencies --   1042.8422              1083.4558              1119.8605
 Red. masses --      3.4111                 2.5694                 1.5951
 Frc consts  --      2.1856                 1.7770                 1.1786
 IR Inten    --      4.7305                48.0747                 3.9895

                     31                     32                     33
                      A                      A                      A
 Frequencies --   1207.5124              1217.6270              1226.4823
 Red. masses --      1.1022                 1.1580                 1.1155
 Frc consts  --      0.9469                 1.0115                 0.9887
 IR Inten    --      0.8913                 7.8373               105.6669

                     34                     35                     36
                      A                      A                      A
 Frequencies --   1297.0688              1350.8642              1373.4121
 Red. masses --      1.2058                 1.7984                 3.0129
 Frc consts  --      1.1952                 1.9336                 3.3484
 IR Inten    --     18.3613                 1.9142                11.7259

                     37                     38                     39
                      A                      A                      A
 Frequencies --   1436.9056              1491.8735              1518.2535
 Red. masses --      1.2122                 2.1532                 1.9255
 Frc consts  --      1.4747                 2.8236                 2.6150
 IR Inten    --     23.7178                24.2275                 1.3604

                     40                     41                     42
                      A                      A                      A
 Frequencies --   1628.3378              1630.1126              1674.1089
 Red. masses --      4.9821                 5.1871                 3.9599
 Frc consts  --      7.7830                 8.1210                 6.5389
 IR Inten    --     18.7632                 3.5044                 1.3452

                     43                     44                     45
                      A                      A                      A
 Frequencies --   3188.4926              3209.1476              3215.7181
 Red. masses --      1.0585                 1.0899                 1.0889
 Frc consts  --      6.3403                 6.6130                 6.6344
 IR Inten    --      3.8591                 0.2280                 0.2882

                     46                     47                     48
                      A                      A                      A
 Frequencies --   3223.0046              3224.3571              3230.7291
 Red. masses --      1.0911                 1.0972                 1.0951
 Frc consts  --      6.6778                 6.7209                 6.7343
 IR Inten    --      0.4066                11.6226                 0.0774

                     49                     50                     51
                      A                      A                      A
 Frequencies --   3235.3136              3278.2746              3661.0933
 Red. masses --      1.0983                 1.1178                 1.0675
 Frc consts  --      6.7735                 7.0778                 8.4304
 IR Inten    --      0.7315                 3.9212               205.4721

 - Thermochemistry -
 -------------------
 Temperature     0.001 Kelvin.  Pressure   1.00000 Atm.
 Atom     1 has atomic number  8 and mass  15.99491

 Molecular mass:   153.03741 amu.
 Principal axes and moments of inertia in atomic units:
                           1         2         3
     Eigenvalues --   856.225932281.852992450.65463
           X            0.99993  -0.01214  -0.00074
           Y            0.01216   0.99931   0.03517
           Z            0.00031  -0.03518   0.99938
 This molecule is an asymmetric top.
 Rotational symmetry number  1.
 Warning -- assumption of classical behavior for rotation
           may cause significant error
 Rotational temperatures (Kelvin)      0.10116     0.03796     0.03534
 Rotational constants (GHZ):           2.10779     0.79091     0.73643
 Zero-point vibrational energy     393835.7 (Joules/Mol)
                                   94.12899 (Kcal/Mol)
 Vibrational temperatures:     76.92   138.42   158.74   227.77   320.13
          (Kelvin)            369.14   459.35   514.86   561.98   591.36
                              669.91   716.05   892.78   897.90   983.85
                              995.81  1033.58  1097.96  1116.23  1225.98
                             1368.38  1390.10  1427.98  1454.75  1462.28
                             1487.92  1494.46  1500.42  1558.85  1611.23
                             1737.34  1751.89  1764.63  1866.19  1943.59
                             1976.03  2067.39  2146.47  2184.43  2342.81
                             2345.37  2408.67  4587.53  4617.25  4626.70
                             4637.18  4639.13  4648.30  4654.89  4716.71
                             5267.50

 Zero-point correction=                           0.150004 (Hartree/Particle)
 Thermal correction to Energy=                    0.150004
 Thermal correction to Enthalpy=                  0.150004
 Thermal correction to Gibbs Free Energy=         0.150004
 Sum of electronic and zero-point Energies=           -783.210761
 Sum of electronic and thermal Energies=              -783.210761
 Sum of electronic and thermal Enthalpies=            -783.210761
 Sum of electronic and thermal Free Energies=         -783.210761

                     E (Thermal)             CV                S
                      KCal/Mol        Cal/Mol-Kelvin    Cal/Mol-Kelvin
 Total                   94.129              5.962            -29.262
 Electronic               0.000              0.000              0.000
 Translational            0.000              2.981            -21.637
 Rotational               0.000              2.981             -7.624
 Vibrational             94.129              0.000              0.000

 Optimization completed.
    -- Stationary point found.
 Normal termination of Gaussian 16 at Mon Oct 14 01:54:51 2019.
