 Gaussian 16, Revision A.03,
 Gaussian 16:  ES64L-G16RevA.03 25-Dec-2016

 --------------------------------------------------------------
 #P opt freq b3lyp/6-31g(d) geom=connectivity temperature=0.001
 --------------------------------------------------------------

 -------------------
 Title Card Required
 -------------------
 Symbolic Z-matrix:
 Charge =  0 Multiplicity = 1

 SCF Done:  E(RB3LYP) =  -1495.92997874     A.U. after   16 cycles
 SCF Done:  E(RB3LYP) =  -1495.97564213     A.U. after   13 cycles
 SCF Done:  E(RB3LYP) =  -1495.99995541     A.U. after   14 cycles
 SCF Done:  E(RB3LYP) =  -1496.00899388     A.U. after   13 cycles
 SCF Done:  E(RB3LYP) =  -1496.01326293     A.U. after   15 cycles
 SCF Done:  E(RB3LYP) =  -1496.01400116     A.U. after   13 cycles
 SCF Done:  E(RB3LYP) =  -1496.01442357     A.U. after   12 cycles
 SCF Done:  E(RB3LYP) =  -1496.01455438     A.U. after   11 cycles
 SCF Done:  E(RB3LYP) =  -1496.01464303     A.U. after   12 cycles
 SCF Done:  E(RB3LYP) =  -1496.01468263     A.U. after   11 cycles
 SCF Done:  E(RB3LYP) =  -1496.01895116     A.U. after   13 cycles
 SCF Done:  E(RB3LYP) =  -1496.01901860     A.U. after   12 cycles
 SCF Done:  E(RB3LYP) =  -1496.01905233     A.U. after   11 cycles
 SCF Done:  E(RB3LYP) =  -1496.01906618     A.U. after   10 cycles
 SCF Done:  E(RB3LYP) =  -1496.01907221     A.U. after    9 cycles
 SCF Done:  E(RB3LYP) =  -1496.01908079     A.U. after    9 cycles
 SCF Done:  E(RB3LYP) =  -1496.01908876     A.U. after   10 cycles
 SCF Done:  E(RB3LYP) =  -1496.01909050     A.U. after    9 cycles
 SCF Done:  E(RB3LYP) =  -1496.01909068     A.U. after    8 cycles
 Optimization completed.
    -- Stationary point found.
 Normal termination of Gaussian 16 at Mon Oct 14 02:07:11 2019.

 --------------------------------------------------------------------
 #P Geom=AllCheck Guess=TCheck SCRF=Check GenChk RB3LYP/6-31G(d) Freq
 --------------------------------------------------------------------

 Structure from the checkpoint file:  "35.chk"
 -------------------
 Title Card Required
 -------------------
 Charge =  0 Multiplicity = 1

                         Standard orientation:
 ---------------------------------------------------------------------
 Center     Atomic      Atomic             Coordinates (Angstroms)
 Number     Number       Type             X           Y           Z
 ---------------------------------------------------------------------
      1          8           0        6.117086    0.325943    0.676493
      2          6           0        5.515839   -0.690291    0.409420
      3          8           0        5.517615   -1.777759    1.217969
      4          6           0        4.660237   -0.915351   -0.828560
      5          6           0        3.194074   -0.710911   -0.547386
      6          6           0        2.599893    0.617108   -0.336598
      7          6           0        3.212559    1.864678   -0.261281
      8          6           0        2.392951    2.961050    0.002978
      9          9           0        2.958311    4.184484    0.080310
     10          6           0        1.022644    2.845783    0.206565
     11          6           0        0.421685    1.583198    0.129224
     12          6           0        1.200364    0.465015   -0.162332
     13          6           0        2.217257   -1.655713   -0.458761
     14          6           0        2.369912   -3.141242   -0.587024
     15          6           0        0.908765   -0.986079   -0.252043
     16          6           0       -0.248366   -1.689122   -0.155590
     17          6           0       -1.643773   -1.233918   -0.098443
     18          6           0       -2.558372   -1.941989    0.707191
     19          6           0       -3.901029   -1.581100    0.760133
     20          6           0       -4.349315   -0.503237   -0.006824
     21         16           0       -6.112857   -0.033787   -0.025130
     22          6           0       -6.107210    0.830184    1.600254
     23          8           0       -6.280598    1.027706   -1.089565
     24          6           0       -3.478819    0.182790   -0.851036
     25          6           0       -2.134459   -0.181075   -0.892907
     26          1           0        6.055411   -1.536532    1.996004
     27          1           0        5.002142   -0.200230   -1.583545
     28          1           0        4.843510   -1.926174   -1.202372
     29          1           0        4.284895    1.997011   -0.357953
     30          1           0        0.441464    3.734795    0.426999
     31          1           0       -0.644007    1.497951    0.305876
     32          1           0        2.006767   -3.657242    0.311369
     33          1           0        1.799443   -3.536582   -1.437330
     34          1           0        3.415313   -3.430610   -0.719579
     35          1           0       -0.144184   -2.772923   -0.116499
     36          1           0       -2.204123   -2.781862    1.299729
     37          1           0       -4.590723   -2.142674    1.386537
     38          1           0       -5.837966    0.126555    2.392984
     39          1           0       -5.396441    1.659426    1.557462
     40          1           0       -7.119031    1.210905    1.762377
     41          1           0       -3.874411    0.979541   -1.474906
     42          1           0       -1.458983    0.333095   -1.568930
 ---------------------------------------------------------------------

 SCF Done:  E(RB3LYP) =  -1496.01909068     A.U. after    1 cycles

 The electronic state is 1-A.
 Alpha  occ. eigenvalues --  -88.99360 -24.69875 -19.20441 -19.14743 -19.10997
 Alpha  occ. eigenvalues --  -10.33024 -10.26915 -10.22543 -10.22017 -10.21805
 Alpha  occ. eigenvalues --  -10.21692 -10.21449 -10.21350 -10.21217 -10.21209
 Alpha  occ. eigenvalues --  -10.20849 -10.20759 -10.20710 -10.20448 -10.20031
 Alpha  occ. eigenvalues --  -10.19962 -10.19569 -10.19546 -10.19159 -10.19154
 Alpha  occ. eigenvalues --   -8.04022  -6.00426  -6.00339  -5.99767  -1.21020
 Alpha  occ. eigenvalues --   -1.11251  -1.02228  -1.00683  -0.89368  -0.87846
 Alpha  occ. eigenvalues --   -0.83572  -0.81360  -0.78907  -0.76682  -0.76333
 Alpha  occ. eigenvalues --   -0.75628  -0.75012  -0.72397  -0.68825  -0.66391
 Alpha  occ. eigenvalues --   -0.63481  -0.62975  -0.61361  -0.60465  -0.59325
 Alpha  occ. eigenvalues --   -0.56690  -0.54629  -0.52246  -0.51701  -0.49761
 Alpha  occ. eigenvalues --   -0.49387  -0.48512  -0.48108  -0.47820  -0.46461
 Alpha  occ. eigenvalues --   -0.45651  -0.45483  -0.45251  -0.45087  -0.44571
 Alpha  occ. eigenvalues --   -0.43945  -0.43623  -0.43311  -0.42954  -0.42075
 Alpha  occ. eigenvalues --   -0.41681  -0.40760  -0.39935  -0.39209  -0.38446
 Alpha  occ. eigenvalues --   -0.38102  -0.38076  -0.37776  -0.37208  -0.36296
 Alpha  occ. eigenvalues --   -0.35747  -0.34637  -0.33284  -0.32442  -0.31785
 Alpha  occ. eigenvalues --   -0.29450  -0.28032  -0.27268  -0.26955  -0.26695
 Alpha  occ. eigenvalues --   -0.23294  -0.22009  -0.21434
 Alpha virt. eigenvalues --   -0.07973  -0.02416  -0.01938  -0.00683   0.00299
 Alpha virt. eigenvalues --    0.03564   0.04077   0.04748   0.06724   0.08074
 Alpha virt. eigenvalues --    0.08668   0.09320   0.09790   0.10567   0.12161

 Mulliken charges:
               1
     1  O   -0.450713
     2  C    0.578605
     3  O   -0.560059
     4  C   -0.419402
     5  C    0.043057
     6  C    0.065250
     7  C   -0.289861
     8  C    0.391382
     9  F   -0.298587
    10  C   -0.216536
    11  C   -0.197866
    12  C    0.070849
    13  C    0.075851
    14  C   -0.541759
    15  C    0.107432
    16  C   -0.316073
    17  C    0.164167
    18  C   -0.168159
    19  C   -0.158088
    20  C   -0.152753
    21  S    0.768402
    22  C   -0.627798
    23  O   -0.627981
    24  C   -0.152214
    25  C   -0.176881
    26  H    0.411378
    27  H    0.185893
    28  H    0.176293
    29  H    0.168938
    30  H    0.143433
    31  H    0.150480
    32  H    0.166217
    33  H    0.165831
    34  H    0.166071
    35  H    0.144204
    36  H    0.139250
    37  H    0.144577
    38  H    0.179227
    39  H    0.203103
    40  H    0.196908
    41  H    0.187583
    42  H    0.160347
 Sum of Mulliken charges =  -0.00000

 Dipole moment (field-independent basis, Debye):
    X=              0.2570    Y=             -4.6934    Z=              2.9151  Tot=              5.5310
 Quadrupole moment (field-independent basis, Debye-Ang):
   XX=           -163.0797   YY=           -148.6389   ZZ=           -145.4903
   XY=             -7.3700   XZ=            -20.8151   YZ=             -0.3548

  Exact polarizability: 399.368  14.081 252.969 -17.489  -8.467 139.337
 Approx polarizability: 557.448  51.839 453.461 -29.964 -32.733 235.379

                      1                      2                      3
                      A                      A                      A
 Frequencies --     22.7899                24.8824                25.6777
 Red. masses --      7.1166                 5.3153                 6.8531
 Frc consts  --      0.0022                 0.0019                 0.0027
 IR Inten    --      0.5696                 0.8096                 1.0141

                      4                      5                      6
                      A                      A                      A
 Frequencies --     35.8879                50.9596                60.7003
 Red. masses --      7.8836                 7.7440                 4.1448
 Frc consts  --      0.0060                 0.0118                 0.0090
 IR Inten    --      2.4938                 2.4799                 1.1624

                      7                      8                      9
                      A                      A                      A
 Frequencies --     71.5692                95.1381               111.4903
 Red. masses --      5.7831                 5.2709                 4.6895
 Frc consts  --      0.0175                 0.0281                 0.0343
 IR Inten    --      0.1330                 0.2714                 1.7964

                     10                     11                     12
                      A                      A                      A
 Frequencies --    116.1658               132.5489               164.1229
 Red. masses --      4.4240                 1.0488                 4.4009
 Frc consts  --      0.0352                 0.0109                 0.0698
 IR Inten    --      0.8048                 0.1347                 4.0046

                     13                     14                     15
                      A                      A                      A
 Frequencies --    171.3177               172.4689               203.2733
 Red. masses --      4.9342                 6.0672                 1.6636
 Frc consts  --      0.0853                 0.1063                 0.0405
 IR Inten    --      1.0456                 0.0475                 0.1246

                     16                     17                     18
                      A                      A                      A
 Frequencies --    212.3518               226.0301               259.9244
 Red. masses --      4.7905                 2.0909                 5.4083
 Frc consts  --      0.1273                 0.0629                 0.2153
 IR Inten    --      0.0271                 1.6620                 2.4829

                     19                     20                     21
                      A                      A                      A
 Frequencies --    278.4684               304.5673               307.7983
 Red. masses --      3.7722                 4.6358                 4.3045
 Frc consts  --      0.1723                 0.2534                 0.2403
 IR Inten    --      0.6339                 6.5568                 0.7899

                     22                     23                     24
                      A                      A                      A
 Frequencies --    348.1378               368.2590               395.2736
 Red. masses --      4.5065                 6.6811                 5.1778
 Frc consts  --      0.3218                 0.5338                 0.4766
 IR Inten    --      0.5969                 4.0882                 2.6388

                     25                     26                     27
                      A                      A                      A
 Frequencies --    412.9898               422.8814               434.5363
 Red. masses --      3.5024                 3.1429                 6.1992
 Frc consts  --      0.3520                 0.3311                 0.6897
 IR Inten    --      0.0952                 2.2488                 3.6421

                     28                     29                     30
                      A                      A                      A
 Frequencies --    439.2796               452.4991               464.3022
 Red. masses --      2.8474                 3.9372                 4.9758
 Frc consts  --      0.3237                 0.4750                 0.6320
 IR Inten    --      2.5205                 2.8672                 6.8177

                     31                     32                     33
                      A                      A                      A
 Frequencies --    483.6990               524.6971               538.7656
 Red. masses --      5.3528                 3.4736                 4.2749
 Frc consts  --      0.7379                 0.5634                 0.7311
 IR Inten    --      5.5146                 8.5351                 3.1526

                     34                     35                     36
                      A                      A                      A
 Frequencies --    547.0997               585.1910               616.7442
 Red. masses --      3.2723                 4.4897                 3.3504
 Frc consts  --      0.5771                 0.9059                 0.7509
 IR Inten    --     15.9353                66.4668                22.3735

                     37                     38                     39
                      A                      A                      A
 Frequencies --    632.6582               641.1749               651.4499
 Red. masses --      3.4166                 6.2596                 4.8421
 Frc consts  --      0.8057                 1.5162                 1.2107
 IR Inten    --     11.7472                 6.9052                 7.6641

                     40                     41                     42
                      A                      A                      A
 Frequencies --    654.2655               679.0894               696.5885
 Red. masses --      1.9795                 5.5681                 3.0644
 Frc consts  --      0.4992                 1.5129                 0.8761
 IR Inten    --     72.0581                 5.1614                23.0248

                     43                     44                     45
                      A                      A                      A
 Frequencies --    714.8244               724.0429               745.7663
 Red. masses --      5.2090                 4.4869                 4.0080
 Frc consts  --      1.5682                 1.3859                 1.3134
 IR Inten    --     14.8867                 8.2371                 9.7814

                     46                     47                     48
                      A                      A                      A
 Frequencies --    765.4821               794.7561               829.9678
 Red. masses --      4.7399                 4.6150                 1.5255
 Frc consts  --      1.6364                 1.7175                 0.6191
 IR Inten    --      2.9871                18.7569                29.9609

                     49                     50                     51
                      A                      A                      A
 Frequencies --    834.2615               851.2012               873.8156
 Red. masses --      1.5357                 3.8407                 1.2707
 Frc consts  --      0.6297                 1.6396                 0.5717
 IR Inten    --      9.9568                 5.1966                 5.9822

                     52                     53                     54
                      A                      A                      A
 Frequencies --    882.1043               894.5651               899.3611
 Red. masses --      1.4510                 2.2950                 3.3391
 Frc consts  --      0.6652                 1.0821                 1.5913
 IR Inten    --     29.1362                 4.5889                18.1832

                     55                     56                     57
                      A                      A                      A
 Frequencies --    914.2021               941.7904               953.7051
 Red. masses --      2.2397                 2.6012                 1.3416
 Frc consts  --      1.1029                 1.3594                 0.7189
 IR Inten    --     21.8721                13.7256                 2.5160

                     58                     59                     60
                      A                      A                      A
 Frequencies --    960.7664               964.0789               978.8100
 Red. masses --      1.4162                 1.3550                 1.3129
 Frc consts  --      0.7702                 0.7420                 0.7411
 IR Inten    --      4.8537                 3.5122                53.9450

                     61                     62                     63
                      A                      A                      A
 Frequencies --    998.1527              1006.8920              1032.0537
 Red. masses --      1.9065                 1.5839                 3.5703
 Frc consts  --      1.1191                 0.9461                 2.2406
 IR Inten    --      5.4129                 9.0844                 5.2443

                     64                     65                     66
                      A                      A                      A
 Frequencies --   1038.2367              1069.7347              1075.2866
 Red. masses --      2.5594                 1.5212                 5.2162
 Frc consts  --      1.6255                 1.0256                 3.5534
 IR Inten    --     18.6493                 0.6737                69.3517

                     67                     68                     69
                      A                      A                      A
 Frequencies --   1090.1651              1101.6579              1137.2780
 Red. masses --      2.2356                 4.0035                 1.7174
 Frc consts  --      1.5654                 2.8627                 1.3088
 IR Inten    --     12.0329                75.6094                 2.9802

                     70                     71                     72
                      A                      A                      A
 Frequencies --   1141.5592              1164.9641              1172.7558
 Red. masses --      1.5159                 1.8362                 2.1133
 Frc consts  --      1.1639                 1.4683                 1.7125
 IR Inten    --      3.4714               128.9124                12.4468

                     73                     74                     75
                      A                      A                      A
 Frequencies --   1212.0719              1220.8177              1246.0842
 Red. masses --      1.1663                 2.6735                 2.4383
 Frc consts  --      1.0095                 2.3477                 2.2307
 IR Inten    --      1.8396               135.2442                21.2066

                     76                     77                     78
                      A                      A                      A
 Frequencies --   1263.8095              1269.3286              1312.8990
 Red. masses --      1.5817                 2.4492                 1.8987
 Frc consts  --      1.4885                 2.3250                 1.9283
 IR Inten    --     79.5324                 4.4465                11.5383

                     79                     80                     81
                      A                      A                      A
 Frequencies --   1325.3195              1332.1429              1338.0407
 Red. masses --      1.4565                 1.5853                 3.2797
 Frc consts  --      1.5073                 1.6575                 3.4596
 IR Inten    --      4.5910                 5.4748                 1.7689

                     82                     83                     84
                      A                      A                      A
 Frequencies --   1356.5553              1365.8477              1377.7291
 Red. masses --      1.1876                 4.5520                 3.6542
 Frc consts  --      1.2876                 5.0033                 4.0866
 IR Inten    --      5.1299                 4.7248                36.8335

                     85                     86                     87
                      A                      A                      A
 Frequencies --   1391.2060              1421.4977              1443.3664
 Red. masses --      2.3301                 2.3334                 1.7152
 Frc consts  --      2.6572                 2.7780                 2.1054
 IR Inten    --     55.9991                 8.3600                 8.4923

                     88                     89                     90
                      A                      A                      A
 Frequencies --   1449.1370              1475.1638              1480.5997
 Red. masses --      1.7105                 1.0521                 4.1876
 Frc consts  --      2.1164                 1.3489                 5.4086
 IR Inten    --      8.2557                 6.2929                 9.3588

                     91                     92                     93
                      A                      A                      A
 Frequencies --   1492.7556              1498.4812              1508.5540
 Red. masses --      1.0553                 1.1436                 1.0539
 Frc consts  --      1.3855                 1.5129                 1.4130
 IR Inten    --     11.7837                14.1192                 9.3766

                     94                     95                     96
                      A                      A                      A
 Frequencies --   1517.5105              1525.8990              1536.4660
 Red. masses --      2.3923                 1.1898                 2.2741
 Frc consts  --      3.2459                 1.6322                 3.1631
 IR Inten    --    117.3383                28.8029                24.9534

                     97                     98                     99
                      A                      A                      A
 Frequencies --   1610.8302              1638.7691              1646.0223
 Red. masses --      6.6407                 6.6243                 5.4976
 Frc consts  --     10.1524                10.4815                 8.7759
 IR Inten    --      0.5334                12.5997                 7.0991

                    100                    101                    102
                      A                      A                      A
 Frequencies --   1658.7012              1668.1905              1682.4099
 Red. masses --      6.6774                 7.6121                 7.6104
 Frc consts  --     10.8241                12.4810                12.6917
 IR Inten    --    114.7013                 2.3185                25.8445

                    103                    104                    105
                      A                      A                      A
 Frequencies --   1843.3436              3039.3826              3066.2327
 Red. masses --      9.5790                 1.0405                 1.0284
 Frc consts  --     19.1772                 5.6633                 5.6966
 IR Inten    --    274.6193                26.8755                 6.4559

                    106                    107                    108
                      A                      A                      A
 Frequencies --   3080.6931              3084.9173              3132.0335
 Red. masses --      1.0595                 1.1004                 1.1042
 Frc consts  --      5.9245                 6.1699                 6.3817
 IR Inten    --     14.1582                15.7282                 4.2154

                    109                    110                    111
                      A                      A                      A
 Frequencies --   3140.5545              3155.8751              3167.4824
 Red. masses --      1.0965                 1.0860                 1.1062
 Frc consts  --      6.3718                 6.3725                 6.5388
 IR Inten    --     27.7815                 7.5243                 7.8631

                    112                    113                    114
                      A                      A                      A
 Frequencies --   3172.3829              3177.4019              3195.1903
 Red. masses --      1.1075                 1.0874                 1.0941
 Frc consts  --      6.5670                 6.4682                 6.5812
 IR Inten    --      2.6763                 6.1878                16.9022

                    115                    116                    117
                      A                      A                      A
 Frequencies --   3205.3578              3217.8140              3220.4847
 Red. masses --      1.0877                 1.0917                 1.0909
 Frc consts  --      6.5842                 6.6603                 6.6664
 IR Inten    --      1.5302                 7.6150                 2.9837

                    118                    119                    120
                      A                      A                      A
 Frequencies --   3228.1554              3235.3945              3681.3812
 Red. masses --      1.0921                 1.0934                 1.0639
 Frc consts  --      6.7056                 6.7434                 8.4955
 IR Inten    --      0.4430                 4.3454                56.8066

 - Thermochemistry -
 -------------------
 Temperature     0.001 Kelvin.  Pressure   1.00000 Atm.
 Atom     1 has atomic number  8 and mass  15.99491

 Molecular mass:   356.08824 amu.
 Principal axes and moments of inertia in atomic units:
                           1         2         3
     Eigenvalues --  4513.92389********************
           X            0.99990  -0.01161  -0.00790
           Y            0.01165   0.99992   0.00434
           Z            0.00785  -0.00443   0.99996
 This molecule is an asymmetric top.
 Rotational symmetry number  1.
 Warning -- assumption of classical behavior for rotation
           may cause significant error
 Rotational temperatures (Kelvin)      0.01919     0.00412     0.00356
 Rotational constants (GHZ):           0.39982     0.08585     0.07415
 Zero-point vibrational energy     848751.9 (Joules/Mol)
                                  202.85657 (Kcal/Mol)
 Vibrational temperatures:     32.79    35.80    36.94    51.63    73.32
          (Kelvin)             87.33   102.97   136.88   160.41   167.14
                              190.71   236.14   246.49   248.14   292.46
                              305.53   325.21   373.97   400.65   438.20
                              442.85   500.89   529.84   568.71   594.20
                              608.43   625.20   632.03   651.05   668.03
                              695.93   754.92   775.16   787.15   841.96
                              887.36   910.25   922.51   937.29   941.34
                              977.06  1002.24  1028.47  1041.74  1072.99
                             1101.36  1143.48  1194.14  1200.32  1224.69
                             1257.23  1269.15  1287.08  1293.98  1315.33
                             1355.03  1372.17  1382.33  1387.09  1408.29
                             1436.12  1448.69  1484.90  1493.79  1539.11
                             1547.10  1568.50  1585.04  1636.29  1642.45
                             1676.12  1687.33  1743.90  1756.48  1792.84
                             1818.34  1826.28  1888.97  1906.84  1916.66
                             1925.14  1951.78  1965.15  1982.24  2001.64
                             2045.22  2076.68  2084.98  2122.43  2130.25
                             2147.74  2155.98  2170.47  2183.36  2195.43
                             2210.63  2317.63  2357.82  2368.26  2386.50
                             2400.15  2420.61  2652.16  4372.99  4411.63
                             4432.43  4438.51  4506.30  4518.56  4540.60
                             4557.30  4564.35  4571.57  4597.17  4611.79
                             4629.72  4633.56  4644.60  4655.01  5296.69

 Zero-point correction=                           0.323273 (Hartree/Particle)
 Thermal correction to Energy=                    0.323273
 Thermal correction to Enthalpy=                  0.323273
 Thermal correction to Gibbs Free Energy=         0.323273
 Sum of electronic and zero-point Energies=          -1495.695818
 Sum of electronic and thermal Energies=             -1495.695818
 Sum of electronic and thermal Enthalpies=           -1495.695818
 Sum of electronic and thermal Free Energies=        -1495.695818

                     E (Thermal)             CV                S
                      KCal/Mol        Cal/Mol-Kelvin    Cal/Mol-Kelvin
 Total                  202.857              5.962            -20.605
 Electronic               0.000              0.000              0.000
 Translational            0.000              2.981            -19.120
 Rotational               0.000              2.981             -1.485
 Vibrational            202.857              0.000              0.000

                           ! Non-Optimized Parameters !
 Normal termination of Gaussian 16 at Mon Oct 14 02:11:37 2019.
