 Gaussian 16, Revision A.03,
 Gaussian 16:  ES64L-G16RevA.03 25-Dec-2016

 --------------------------------------------------------------
 #P opt freq b3lyp/6-31g(d) geom=connectivity temperature=0.001
 --------------------------------------------------------------

 -------------------
 Title Card Required
 -------------------
 Symbolic Z-matrix:
 Charge =  1 Multiplicity = 1

 SCF Done:  E(RB3LYP) =  -1496.29128921     A.U. after   17 cycles
 SCF Done:  E(RB3LYP) =  -1496.33624104     A.U. after   13 cycles
 SCF Done:  E(RB3LYP) =  -1496.35975976     A.U. after   13 cycles
 SCF Done:  E(RB3LYP) =  -1496.36909051     A.U. after   13 cycles
 SCF Done:  E(RB3LYP) =  -1496.37305616     A.U. after   14 cycles
 SCF Done:  E(RB3LYP) =  -1496.37363755     A.U. after   13 cycles
 SCF Done:  E(RB3LYP) =  -1496.37449315     A.U. after   12 cycles
 SCF Done:  E(RB3LYP) =  -1496.37551593     A.U. after   13 cycles
 SCF Done:  E(RB3LYP) =  -1496.37754809     A.U. after   15 cycles
 SCF Done:  E(RB3LYP) =  -1496.37893101     A.U. after   13 cycles
 SCF Done:  E(RB3LYP) =  -1496.38787102     A.U. after   15 cycles
 SCF Done:  E(RB3LYP) =  -1496.38820506     A.U. after   15 cycles
 SCF Done:  E(RB3LYP) =  -1496.38837629     A.U. after   14 cycles
 SCF Done:  E(RB3LYP) =  -1496.38846442     A.U. after   12 cycles
 SCF Done:  E(RB3LYP) =  -1496.38846598     A.U. after   11 cycles
 SCF Done:  E(RB3LYP) =  -1496.38846382     A.U. after   11 cycles
 SCF Done:  E(RB3LYP) =  -1496.38846985     A.U. after   11 cycles
 SCF Done:  E(RB3LYP) =  -1496.38846991     A.U. after    7 cycles
 SCF Done:  E(RB3LYP) =  -1496.38846995     A.U. after    8 cycles
 Optimization completed.
    -- Stationary point found.
 Normal termination of Gaussian 16 at Mon Oct 14 02:11:01 2019.

 --------------------------------------------------------------------
 #P Geom=AllCheck Guess=TCheck SCRF=Check GenChk RB3LYP/6-31G(d) Freq
 --------------------------------------------------------------------

 Structure from the checkpoint file:  "35_p.chk"
 -------------------
 Title Card Required
 -------------------
 Charge =  1 Multiplicity = 1

                         Standard orientation:
 ---------------------------------------------------------------------
 Center     Atomic      Atomic             Coordinates (Angstroms)
 Number     Number       Type             X           Y           Z
 ---------------------------------------------------------------------
      1          8           0        6.102619    0.298075    0.446348
      2          6           0        5.584600   -0.762292    0.182778
      3          8           0        5.779648   -1.888687    0.901560
      4          6           0        4.614102   -1.000919   -0.971422
      5          6           0        3.190576   -0.746348   -0.558706
      6          6           0        2.649501    0.608759   -0.332330
      7          6           0        3.300265    1.832477   -0.324450
      8          6           0        2.537749    2.958416    0.010773
      9          9           0        3.140905    4.155657    0.024134
     10          6           0        1.194056    2.882553    0.353433
     11          6           0        0.555935    1.634587    0.342174
     12          6           0        1.267878    0.497809   -0.032318
     13          6           0        2.203698   -1.661948   -0.347459
     14          6           0        2.304970   -3.154659   -0.437427
     15          6           0        0.935206   -0.944519   -0.075436
     16          6           0       -0.237772   -1.624809    0.094355
     17          6           0       -1.612782   -1.162596    0.138866
     18          6           0       -2.571269   -1.945742    0.826911
     19          6           0       -3.908079   -1.589261    0.859864
     20          6           0       -4.325913   -0.423307    0.186000
     21         16           0       -6.031651   -0.069274    0.274757
     22          6           0       -6.156889    1.716974    0.543282
     23          8           0       -6.617245   -0.017170   -1.287546
     24          6           0       -3.405358    0.348667   -0.552975
     25          6           0       -2.074907   -0.022746   -0.571233
     26          1           0        6.392252   -1.658242    1.626761
     27          1           0        4.896919   -0.308731   -1.771156
     28          1           0        4.736457   -2.022227   -1.337503
     29          1           0        4.363792    1.932400   -0.511334
     30          1           0        0.666630    3.786477    0.637298
     31          1           0       -0.482235    1.579811    0.649975
     32          1           0        1.979670   -3.632507    0.495629
     33          1           0        1.681478   -3.558869   -1.245139
     34          1           0        3.333220   -3.476684   -0.614846
     35          1           0       -0.145274   -2.703930    0.199444
     36          1           0       -2.246774   -2.840406    1.349518
     37          1           0       -4.621930   -2.195461    1.410685
     38          1           0       -5.692847    1.935383    1.507557
     39          1           0       -5.652956    2.247114   -0.267240
     40          1           0       -7.219975    1.964593    0.561045
     41          1           0       -3.731861    1.206047   -1.133314
     42          1           0       -1.374602    0.545512   -1.171829
     43          1           0       -7.037257   -0.877130   -1.489857
 ---------------------------------------------------------------------

 SCF Done:  E(RB3LYP) =  -1496.38846995     A.U. after    1 cycles

 The electronic state is 1-A.
 Alpha  occ. eigenvalues --  -89.17793 -24.78408 -19.36513 -19.27366 -19.21705
 Alpha  occ. eigenvalues --  -10.40153 -10.38543 -10.37845 -10.36001 -10.35484
 Alpha  occ. eigenvalues --  -10.35299 -10.35097 -10.33412 -10.33280 -10.32047
 Alpha  occ. eigenvalues --  -10.31097 -10.30070 -10.29600 -10.29295 -10.29097
 Alpha  occ. eigenvalues --  -10.29031 -10.28899 -10.28084 -10.27985 -10.27451
 Alpha  occ. eigenvalues --   -8.22767  -6.19306  -6.18930  -6.18424  -1.29776
 Alpha  occ. eigenvalues --   -1.22918  -1.18222  -1.09297  -1.02923  -0.98934
 Alpha  occ. eigenvalues --   -0.98046  -0.92860  -0.91652  -0.89997  -0.88091
 Alpha  occ. eigenvalues --   -0.84941  -0.84373  -0.83690  -0.81374  -0.77506
 Alpha  occ. eigenvalues --   -0.76197  -0.75723  -0.72192  -0.70262  -0.69869
 Alpha  occ. eigenvalues --   -0.68770  -0.67360  -0.65300  -0.63646  -0.62466
 Alpha  occ. eigenvalues --   -0.61426  -0.61192  -0.59508  -0.59206  -0.58989
 Alpha  occ. eigenvalues --   -0.58100  -0.57487  -0.57230  -0.56869  -0.55646
 Alpha  occ. eigenvalues --   -0.54814  -0.54374  -0.53863  -0.53768  -0.52730
 Alpha  occ. eigenvalues --   -0.51929  -0.51463  -0.51258  -0.50601  -0.50292
 Alpha  occ. eigenvalues --   -0.49018  -0.48333  -0.47562  -0.47196  -0.46918
 Alpha  occ. eigenvalues --   -0.46720  -0.46395  -0.46240  -0.44138  -0.43013
 Alpha  occ. eigenvalues --   -0.42120  -0.40225  -0.39497  -0.39391  -0.36861
 Alpha  occ. eigenvalues --   -0.35294  -0.31904  -0.30442
 Alpha virt. eigenvalues --   -0.22525  -0.17367  -0.14793  -0.12758  -0.11819
 Alpha virt. eigenvalues --   -0.10142  -0.08626  -0.06990  -0.06443  -0.04611
 Alpha virt. eigenvalues --   -0.04099  -0.01626  -0.01130  -0.00822  -0.00305

 Mulliken charges:
               1
     1  O   -0.436258
     2  C    0.579944
     3  O   -0.553980
     4  C   -0.426351
     5  C    0.060405
     6  C    0.067273
     7  C   -0.275126
     8  C    0.405292
     9  F   -0.275921
    10  C   -0.211502
    11  C   -0.194249
    12  C    0.070958
    13  C    0.078455
    14  C   -0.545770
    15  C    0.108505
    16  C   -0.322736
    17  C    0.193000
    18  C   -0.169097
    19  C   -0.135632
    20  C   -0.158670
    21  S    0.744870
    22  C   -0.625677
    23  O   -0.634043
    24  C   -0.125981
    25  C   -0.169508
    26  H    0.422505
    27  H    0.200400
    28  H    0.190408
    29  H    0.194376
    30  H    0.158416
    31  H    0.138990
    32  H    0.174151
    33  H    0.172854
    34  H    0.185043
    35  H    0.163194
    36  H    0.179789
    37  H    0.187094
    38  H    0.244632
    39  H    0.249081
    40  H    0.254517
    41  H    0.179455
    42  H    0.194280
    43  H    0.462614
 Sum of Mulliken charges =   1.00000

 Dipole moment (field-independent basis, Debye):
    X=            -18.1312    Y=             -3.0849    Z=              0.5606  Tot=             18.4003
 Quadrupole moment (field-independent basis, Debye-Ang):
   XX=             -6.1902   YY=           -128.9198   ZZ=           -140.8689
   XY=            -16.3731   XZ=             -3.9970   YZ=             -0.1289

  Exact polarizability: 542.233  20.616 263.044 -15.976  -6.898 127.474
 Approx polarizability: 832.311  73.056 473.651 -44.075 -25.446 213.540

                      1                      2                      3
                      A                      A                      A
 Frequencies --     22.2134                26.0291                30.4259
 Red. masses --      6.6455                 8.2452                 5.6007
 Frc consts  --      0.0019                 0.0033                 0.0031
 IR Inten    --      0.5105                 0.7972                 0.8830

                      4                      5                      6
                      A                      A                      A
 Frequencies --     32.1193                49.2501                66.6985
 Red. masses --      5.2227                 6.5234                 5.3605
 Frc consts  --      0.0032                 0.0093                 0.0141
 IR Inten    --      0.7602                 0.4257                 0.3680

                      7                      8                      9
                      A                      A                      A
 Frequencies --     72.1525                94.9986               108.4007
 Red. masses --      4.4317                 5.8354                 3.9207
 Frc consts  --      0.0136                 0.0310                 0.0271
 IR Inten    --      4.3930                 2.8127                 0.0719

                     10                     11                     12
                      A                      A                      A
 Frequencies --    119.1624               138.1817               163.2981
 Red. masses --      4.8022                 1.0628                 5.7587
 Frc consts  --      0.0402                 0.0120                 0.0905
 IR Inten    --      2.3694                 0.2161                 1.1056

                     13                     14                     15
                      A                      A                      A
 Frequencies --    170.3971               174.5643               191.8194
 Red. masses --      4.5024                 4.0439                 1.1904
 Frc consts  --      0.0770                 0.0726                 0.0258
 IR Inten    --      0.9722                 7.4146                 2.4983

                     16                     17                     18
                      A                      A                      A
 Frequencies --    205.8478               221.0892               254.5571
 Red. masses --      4.1151                 4.7048                 5.3930
 Frc consts  --      0.1027                 0.1355                 0.2059
 IR Inten    --      4.1425                 8.8006                34.5970

                     19                     20                     21
                      A                      A                      A
 Frequencies --    260.3923               276.8935               301.5191
 Red. masses --      2.1105                 4.3182                 3.1338
 Frc consts  --      0.0843                 0.1951                 0.1679
 IR Inten    --    127.5497                 3.5015                19.9362

                     22                     23                     24
                      A                      A                      A
 Frequencies --    331.7440               343.0730               375.2269
 Red. masses --      2.1637                 3.8564                 6.3485
 Frc consts  --      0.1403                 0.2674                 0.5266
 IR Inten    --     19.2711                 1.1020                 1.6197

                     25                     26                     27
                      A                      A                      A
 Frequencies --    388.9209               418.2061               421.3960
 Red. masses --      3.4114                 3.8193                 3.6745
 Frc consts  --      0.3040                 0.3936                 0.3844
 IR Inten    --      3.3799                23.6745                15.7180

                     28                     29                     30
                      A                      A                      A
 Frequencies --    433.0253               436.4523               446.1937
 Red. masses --      2.5902                 5.1989                 3.3885
 Frc consts  --      0.2862                 0.5835                 0.3975
 IR Inten    --      6.3898                 6.9962                 7.1790

                     31                     32                     33
                      A                      A                      A
 Frequencies --    456.4528               481.6650               526.8490
 Red. masses --      6.5451                 4.8303                 3.2843
 Frc consts  --      0.8035                 0.6603                 0.5371
 IR Inten    --     46.5883                11.1897                17.3566

                     34                     35                     36
                      A                      A                      A
 Frequencies --    530.2346               543.7408               586.9649
 Red. masses --      3.5066                 4.5691                 4.3342
 Frc consts  --      0.5809                 0.7959                 0.8798
 IR Inten    --     11.0907                 2.8022                71.3912

                     37                     38                     39
                      A                      A                      A
 Frequencies --    622.8838               631.9754               638.5025
 Red. masses --      3.5998                 4.1272                 4.7853
 Frc consts  --      0.8229                 0.9712                 1.1494
 IR Inten    --     13.1422                 2.9800                 5.6857

                     40                     41                     42
                      A                      A                      A
 Frequencies --    663.4065               678.9332               696.0945
 Red. masses --      1.9893                 5.2768                 5.8122
 Frc consts  --      0.5158                 1.4331                 1.6593
 IR Inten    --    141.8663                 2.2735                65.0204

                     43                     44                     45
                      A                      A                      A
 Frequencies --    700.7451               716.6432               728.0410
 Red. masses --      2.8616                 4.0572                 5.1836
 Frc consts  --      0.8279                 1.2277                 1.6188
 IR Inten    --     31.2213                15.3675                71.8170

                     46                     47                     48
                      A                      A                      A
 Frequencies --    741.2825               742.8525               759.7301
 Red. masses --      5.2950                 7.2523                 5.2608
 Frc consts  --      1.7143                 2.3579                 1.7890
 IR Inten    --     76.1767               265.5826                13.3650

                     49                     50                     51
                      A                      A                      A
 Frequencies --    794.0736               827.7246               836.8418
 Red. masses --      4.7138                 1.4883                 1.3709
 Frc consts  --      1.7512                 0.6008                 0.5656
 IR Inten    --     32.0798                24.2926                 5.9889

                     52                     53                     54
                      A                      A                      A
 Frequencies --    841.6085               853.6340               889.2570
 Red. masses --      1.4627                 3.7790                 2.0655
 Frc consts  --      0.6104                 1.6225                 0.9623
 IR Inten    --     17.2145                 8.3417               104.8868

                     55                     56                     57
                      A                      A                      A
 Frequencies --    895.6309               903.4483               912.8082
 Red. masses --      1.6478                 2.7121                 2.7053
 Frc consts  --      0.7788                 1.3043                 1.3281
 IR Inten    --     14.1985                23.8014                35.3761

                     58                     59                     60
                      A                      A                      A
 Frequencies --    941.2119               948.3931               981.9897
 Red. masses --      2.2448                 1.4800                 1.3393
 Frc consts  --      1.1717                 0.7843                 0.7609
 IR Inten    --      4.7391                12.8003                 3.5516

                     61                     62                     63
                      A                      A                      A
 Frequencies --    995.4491              1003.5386              1003.9154
 Red. masses --      1.6869                 1.2782                 1.7683
 Frc consts  --      0.9849                 0.7584                 1.0501
 IR Inten    --      4.1105                 6.6164                13.4033

                     64                     65                     66
                      A                      A                      A
 Frequencies --   1017.7531              1023.1284              1035.4040
 Red. masses --      2.0624                 1.7007                 2.4697
 Frc consts  --      1.2586                 1.0489                 1.5599
 IR Inten    --      7.2959               137.9869                35.9506

                     67                     68                     69
                      A                      A                      A
 Frequencies --   1069.7997              1086.9276              1090.6449
 Red. masses --      1.5171                 2.7123                 2.6658
 Frc consts  --      1.0230                 1.8879                 1.8683
 IR Inten    --      1.0674               153.7687               330.2747

                     70                     71                     72
                      A                      A                      A
 Frequencies --   1131.6278              1160.1568              1166.3702
 Red. masses --      2.0629                 1.5139                 1.7674
 Frc consts  --      1.5565                 1.2006                 1.4166
 IR Inten    --     14.2394                 4.2560               146.5289

                     73                     74                     75
                      A                      A                      A
 Frequencies --   1172.0489              1217.9772              1221.2310
 Red. masses --      1.9563                 1.1405                 2.4903
 Frc consts  --      1.5834                 0.9968                 2.1882
 IR Inten    --      2.0782               203.4938                63.8391

                     76                     77                     78
                      A                      A                      A
 Frequencies --   1227.5486              1251.8667              1265.5910
 Red. masses --      1.2013                 1.9633                 1.6520
 Frc consts  --      1.0665                 1.8128                 1.5590
 IR Inten    --     59.0474               153.1747               102.5650

                     79                     80                     81
                      A                      A                      A
 Frequencies --   1281.3136              1317.5426              1323.0697
 Red. masses --      2.2836                 1.7981                 1.5271
 Frc consts  --      2.2090                 1.8390                 1.5750
 IR Inten    --     27.0645                 9.4347                16.6959

                     82                     83                     84
                      A                      A                      A
 Frequencies --   1340.6317              1349.3721              1363.8432
 Red. masses --      1.7699                 2.5570                 5.0737
 Frc consts  --      1.8742                 2.7431                 5.5604
 IR Inten    --      4.1362                 4.9912                38.1249

                     85                     86                     87
                      A                      A                      A
 Frequencies --   1384.0029              1390.2297              1397.4671
 Red. masses --      3.9516                 1.1753                 2.4989
 Frc consts  --      4.4596                 1.3384                 2.8753
 IR Inten    --    163.5828                 7.3347                41.6045

                     88                     89                     90
                      A                      A                      A
 Frequencies --   1430.8134              1449.2173              1467.2204
 Red. masses --      1.8885                 1.3533                 2.2762
 Frc consts  --      2.2779                 1.6747                 2.8870
 IR Inten    --     24.7248                 3.0305               102.7094

                     91                     92                     93
                      A                      A                      A
 Frequencies --   1471.3941              1480.8530              1483.4966
 Red. masses --      1.1900                 1.1616                 3.0164
 Frc consts  --      1.5180                 1.5009                 3.9112
 IR Inten    --     12.7448                44.3503                22.2935

                     94                     95                     96
                      A                      A                      A
 Frequencies --   1499.9329              1509.3257              1516.9038
 Red. masses --      1.1743                 1.0613                 2.4222
 Frc consts  --      1.5566                 1.4245                 3.2838
 IR Inten    --     35.5075                13.2932               176.7482

                     97                     98                     99
                      A                      A                      A
 Frequencies --   1525.2270              1529.1577              1576.5340
 Red. masses --      1.1320                 2.1569                 5.4967
 Frc consts  --      1.5515                 2.9716                 8.0493
 IR Inten    --     17.6013                21.8184                 9.2350

                    100                    101                    102
                      A                      A                      A
 Frequencies --   1613.9686              1639.2926              1650.7891
 Red. masses --      5.1976                 6.6399                 6.2029
 Frc consts  --      7.9771                10.5130                 9.9592
 IR Inten    --   1335.3990                60.6460                61.5416

                    103                    104                    105
                      A                      A                      A
 Frequencies --   1660.0586              1666.4849              1846.8047
 Red. masses --      7.4162                 6.7197                 9.8433
 Frc consts  --     12.0414                10.9952                19.7802
 IR Inten    --     17.3301                40.6401               258.9854

                    106                    107                    108
                      A                      A                      A
 Frequencies --   3042.7596              3085.7156              3088.9645
 Red. masses --      1.0414                 1.0620                 1.0281
 Frc consts  --      5.6807                 5.9576                 5.7800
 IR Inten    --     16.9969                 6.8663                 5.3991

                    109                    110                    111
                      A                      A                      A
 Frequencies --   3089.7067              3145.1941              3153.1784
 Red. masses --      1.1007                 1.1020                 1.0960
 Frc consts  --      6.1910                 6.4231                 6.4206
 IR Inten    --     12.0417                 1.6892                15.3753

                    112                    113                    114
                      A                      A                      A
 Frequencies --   3172.4687              3196.4979              3197.8361
 Red. masses --      1.0860                 1.1087                 1.1085
 Frc consts  --      6.4400                 6.6744                 6.6790
 IR Inten    --      1.5056                 1.9683                 2.5193

                    115                    116                    117
                      A                      A                      A
 Frequencies --   3202.5306              3212.5763              3217.0917
 Red. masses --      1.0890                 1.0899                 1.0884
 Frc consts  --      6.5808                 6.6276                 6.6370
 IR Inten    --      0.4310                 0.9560                 6.1575

                    118                    119                    120
                      A                      A                      A
 Frequencies --   3217.9971              3233.4787              3237.2450
 Red. masses --      1.0948                 1.0943                 1.0928
 Frc consts  --      6.6797                 6.7408                 6.7475
 IR Inten    --      1.2021                 2.6150                 4.7515

                    121                    122                    123
                      A                      A                      A
 Frequencies --   3241.5501              3672.9297              3674.6478
 Red. masses --      1.0932                 1.0675                 1.0641
 Frc consts  --      6.7682                 8.4845                 8.4653
 IR Inten    --      0.5185               269.8099                73.0053

 - Thermochemistry -
 -------------------
 Temperature     0.001 Kelvin.  Pressure   1.00000 Atm.
 Atom     1 has atomic number  8 and mass  15.99491

 Molecular mass:   357.09607 amu.
 Principal axes and moments of inertia in atomic units:
                           1         2         3
     Eigenvalues --  4443.40139********************
           X            0.99989  -0.01433  -0.00249
           Y            0.01434   0.99989   0.00309
           Z            0.00244  -0.00313   0.99999
 This molecule is an asymmetric top.
 Rotational symmetry number  1.
 Warning -- assumption of classical behavior for rotation
           may cause significant error
 Rotational temperatures (Kelvin)      0.01949     0.00403     0.00345
 Rotational constants (GHZ):           0.40616     0.08395     0.07197
 Zero-point vibrational energy     879471.6 (Joules/Mol)
                                  210.19875 (Kcal/Mol)
 Vibrational temperatures:     31.96    37.45    43.78    46.21    70.86
          (Kelvin)             95.96   103.81   136.68   155.96   171.45
                              198.81   234.95   245.16   251.16   275.99
                              296.17   318.10   366.25   374.65   398.39
                              433.82   477.31   493.61   539.87   559.57
                              601.71   606.29   623.03   627.96   641.97
                              656.73   693.01   758.02   762.89   782.32
                              844.51   896.19   909.27   918.66   954.49
                              976.83  1001.52  1008.22  1031.09  1047.49
                             1066.54  1068.80  1093.08  1142.49  1190.91
                             1204.03  1210.89  1228.19  1279.44  1288.61
                             1299.86  1313.33  1354.19  1364.53  1412.86
                             1432.23  1443.87  1444.41  1464.32  1472.05
                             1489.72  1539.20  1563.85  1569.19  1628.16
                             1669.21  1678.15  1686.32  1752.40  1757.08
                             1766.17  1801.16  1820.90  1843.52  1895.65
                             1903.60  1928.87  1941.45  1962.27  1991.27
                             2000.23  2010.64  2058.62  2085.10  2111.00
                             2117.01  2130.62  2134.42  2158.07  2171.58
                             2182.49  2194.46  2200.12  2268.28  2322.14
                             2358.58  2375.12  2388.45  2397.70  2657.14
                             4377.85  4439.66  4444.33  4445.40  4525.23
                             4536.72  4564.47  4599.05  4600.97  4607.73
                             4622.18  4628.68  4629.98  4652.25  4657.67
                             4663.87  5284.53  5287.00

 Zero-point correction=                           0.334973 (Hartree/Particle)
 Thermal correction to Energy=                    0.334973
 Thermal correction to Enthalpy=                  0.334973
 Thermal correction to Gibbs Free Energy=         0.334973
 Sum of electronic and zero-point Energies=          -1496.053497
 Sum of electronic and thermal Energies=             -1496.053497
 Sum of electronic and thermal Enthalpies=           -1496.053497
 Sum of electronic and thermal Free Energies=        -1496.053497

                     E (Thermal)             CV                S
                      KCal/Mol        Cal/Mol-Kelvin    Cal/Mol-Kelvin
 Total                  210.199              5.962            -20.561
 Electronic               0.000              0.000              0.000
 Translational            0.000              2.981            -19.111
 Rotational               0.000              2.981             -1.449
 Vibrational            210.199              0.000              0.000

                           ! Non-Optimized Parameters !
 Normal termination of Gaussian 16 at Mon Oct 14 02:15:27 2019.
