 Gaussian 16, Revision A.03,
 Gaussian 16:  ES64L-G16RevA.03 25-Dec-2016

 --------------------------------------------------------------
 #P opt freq b3lyp/6-31g(d) geom=connectivity temperature=0.001
 --------------------------------------------------------------

 -------------------
 Title Card Required
 -------------------
 Symbolic Z-matrix:
 Charge =  0 Multiplicity = 1

 SCF Done:  E(RB3LYP) =  -985.570492408     A.U. after   15 cycles
 SCF Done:  E(RB3LYP) =  -985.604158902     A.U. after   11 cycles
 SCF Done:  E(RB3LYP) =  -985.634904136     A.U. after   12 cycles
 SCF Done:  E(RB3LYP) =  -985.636448217     A.U. after   11 cycles
 SCF Done:  E(RB3LYP) =  -985.636583628     A.U. after   10 cycles
 SCF Done:  E(RB3LYP) =  -985.637101505     A.U. after   11 cycles
 SCF Done:  E(RB3LYP) =  -985.606623003     A.U. after   11 cycles
 SCF Done:  E(RB3LYP) =  -985.638726332     A.U. after   11 cycles
 SCF Done:  E(RB3LYP) =  -985.639502402     A.U. after   11 cycles
 SCF Done:  E(RB3LYP) =  -985.639589152     A.U. after   10 cycles
 SCF Done:  E(RB3LYP) =  -985.640001296     A.U. after   11 cycles
 SCF Done:  E(RB3LYP) =  -985.640050693     A.U. after   10 cycles
 SCF Done:  E(RB3LYP) =  -985.640052414     A.U. after    8 cycles
 SCF Done:  E(RB3LYP) =  -985.640052693     A.U. after    7 cycles
 SCF Done:  E(RB3LYP) =  -985.640052696     A.U. after    6 cycles
 Optimization completed.
    -- Stationary point found.
 Normal termination of Gaussian 16 at Mon Oct 14 01:59:57 2019.

 --------------------------------------------------------------------
 #P Geom=AllCheck Guess=TCheck SCRF=Check GenChk RB3LYP/6-31G(d) Freq
 --------------------------------------------------------------------

 Structure from the checkpoint file:  "36.chk"
 -------------------
 Title Card Required
 -------------------
 Charge =  0 Multiplicity = 1

                         Standard orientation:
 ---------------------------------------------------------------------
 Center     Atomic      Atomic             Coordinates (Angstroms)
 Number     Number       Type             X           Y           Z
 ---------------------------------------------------------------------
      1          8           0        6.329774    1.483988    0.737118
      2         16           0        6.347202    0.393505   -0.313610
      3          6           0        7.551715   -0.882051    0.232540
      4          6           0        4.836851   -0.641965   -0.054729
      5          6           0        3.577591    0.193127   -0.285318
      6          6           0        2.288861   -0.593826   -0.008335
      7          6           0        1.018216    0.236696   -0.232145
      8          6           0       -0.274916   -0.539461    0.048860
      9          6           0       -1.546652    0.288788   -0.175974
     10          6           0       -2.840446   -0.486432    0.104949
     11          6           0       -4.112502    0.341103   -0.120558
     12          6           0       -5.406419   -0.434084    0.159920
     13          6           0       -6.678707    0.392655   -0.066017
     14          6           0       -7.972859   -0.382213    0.213972
     15          6           0       -9.238298    0.450825   -0.014311
     16          1           0        7.504551   -1.748937   -0.433911
     17          1           0        8.544810   -0.429158    0.181314
     18          1           0        7.333793   -1.170646    1.265057
     19          1           0        4.901595   -1.488850   -0.749798
     20          1           0        4.874361   -1.022006    0.973622
     21          1           0        3.624484    1.075679    0.364334
     22          1           0        3.567653    0.563617   -1.320082
     23          1           0        2.258008   -1.486960   -0.649923
     24          1           0        2.304901   -0.962535    1.027620
     25          1           0        1.053399    1.130527    0.407459
     26          1           0        1.003506    0.605145   -1.268486
     27          1           0       -0.307340   -1.434992   -0.589590
     28          1           0       -0.259629   -0.906928    1.085732
     29          1           0       -1.513887    1.184198    0.462276
     30          1           0       -1.561552    0.656547   -1.212773
     31          1           0       -2.872516   -1.382385   -0.532916
     32          1           0       -2.825510   -0.853725    1.141959
     33          1           0       -4.080503    1.236862    0.517410
     34          1           0       -4.127168    0.708680   -1.157467
     35          1           0       -5.438033   -1.330167   -0.477818
     36          1           0       -5.391825   -0.801333    1.196999
     37          1           0       -6.648323    1.288758    0.571846
     38          1           0       -6.694251    0.760284   -1.103060
     39          1           0       -8.003744   -1.277273   -0.423697
     40          1           0       -7.957957   -0.748842    1.250332
     41          1           0      -10.144070   -0.130180    0.193990
     42          1           0       -9.253245    1.335049    0.634906
     43          1           0       -9.299549    0.802626   -1.051645
 ---------------------------------------------------------------------

 SCF Done:  E(RB3LYP) =  -985.640052696     A.U. after    1 cycles

 The electronic state is 1-A.
 Alpha  occ. eigenvalues --  -88.97834 -19.09617 -10.21319 -10.21148 -10.19080
 Alpha  occ. eigenvalues --  -10.18620 -10.18043 -10.17858 -10.17677 -10.17665
 Alpha  occ. eigenvalues --  -10.17600 -10.17528 -10.17491 -10.17445 -10.17048
 Alpha  occ. eigenvalues --   -8.02572  -5.98970  -5.98884  -5.98309  -0.99195
 Alpha  occ. eigenvalues --   -0.81731  -0.80566  -0.79080  -0.77255  -0.75277
 Alpha  occ. eigenvalues --   -0.72644  -0.69356  -0.65755  -0.62265  -0.59339
 Alpha  occ. eigenvalues --   -0.58444  -0.57677  -0.57141  -0.56880  -0.49083
 Alpha  occ. eigenvalues --   -0.47966  -0.46603  -0.45800  -0.45024  -0.44206
 Alpha  occ. eigenvalues --   -0.43620  -0.42699  -0.42051  -0.41639  -0.40493
 Alpha  occ. eigenvalues --   -0.40217  -0.39155  -0.38971  -0.37086  -0.36887
 Alpha  occ. eigenvalues --   -0.36682  -0.35010  -0.34893  -0.34153  -0.33518
 Alpha  occ. eigenvalues --   -0.33151  -0.32881  -0.32478  -0.32385  -0.31928
 Alpha  occ. eigenvalues --   -0.31926  -0.31757  -0.29232  -0.25476  -0.21800
 Alpha virt. eigenvalues --    0.04308   0.05170   0.08050   0.08713   0.09187
 Alpha virt. eigenvalues --    0.09756   0.10459   0.10778   0.11692   0.11920
 Alpha virt. eigenvalues --    0.11999   0.13118   0.13431   0.13771   0.14453

 Mulliken charges:
               1
     1  O   -0.635034
     2  S    0.755945
     3  C   -0.629864
     4  C   -0.455464
     5  C   -0.272697
     6  C   -0.254175
     7  C   -0.253339
     8  C   -0.253338
     9  C   -0.253000
    10  C   -0.252625
    11  C   -0.252748
    12  C   -0.252238
    13  C   -0.245423
    14  C   -0.246504
    15  C   -0.441255
    16  H    0.172294
    17  H    0.196422
    18  H    0.192393
    19  H    0.158812
    20  H    0.175348
    21  H    0.174276
    22  H    0.144016
    23  H    0.127224
    24  H    0.133380
    25  H    0.134682
    26  H    0.129521
    27  H    0.126136
    28  H    0.127981
    29  H    0.128853
    30  H    0.127224
    31  H    0.125941
    32  H    0.126778
    33  H    0.127320
    34  H    0.126608
    35  H    0.125926
    36  H    0.126368
    37  H    0.126332
    38  H    0.125955
    39  H    0.129338
    40  H    0.129602
    41  H    0.141033
    42  H    0.141112
    43  H    0.140884
 Sum of Mulliken charges =  -0.00000

 Dipole moment (field-independent basis, Debye):
    X=             -0.6741    Y=             -3.5531    Z=             -1.2018  Tot=              3.8109
 Quadrupole moment (field-independent basis, Debye-Ang):
   XX=           -108.1675   YY=           -109.4502   ZZ=           -105.0783
   XY=            -22.8793   XZ=             -7.6655   YZ=             -1.8352

  Exact polarizability: 220.095  -2.504 143.403   1.507   1.727 131.963
 Approx polarizability: 222.352   0.562 226.819   1.953  10.908 209.325

                      1                      2                      3
                      A                      A                      A
 Frequencies --     15.8865                24.9877                29.4294
 Red. masses --      4.1486                 3.9445                 2.0616
 Frc consts  --      0.0006                 0.0015                 0.0011
 IR Inten    --      0.2761                 0.4102                 2.7082

                      4                      5                      6
                      A                      A                      A
 Frequencies --     40.8852                66.2654                67.3328
 Red. masses --      3.7804                 1.8047                 3.2986
 Frc consts  --      0.0037                 0.0047                 0.0088
 IR Inten    --      0.8183                 0.7749                 1.4811

                      7                      8                      9
                      A                      A                      A
 Frequencies --     73.7524               104.0761               110.2717
 Red. masses --      3.1946                 1.7222                 2.7356
 Frc consts  --      0.0102                 0.0110                 0.0196
 IR Inten    --      0.5646                 0.1614                 1.1028

                     10                     11                     12
                      A                      A                      A
 Frequencies --    123.9396               139.5828               143.1427
 Red. masses --      3.6271                 1.8311                 3.0437
 Frc consts  --      0.0328                 0.0210                 0.0367
 IR Inten    --      0.7110                 0.0417                 0.1011

                     13                     14                     15
                      A                      A                      A
 Frequencies --    149.9464               167.3664               170.9715
 Red. masses --      2.7086                 1.8908                 2.0730
 Frc consts  --      0.0359                 0.0312                 0.0357
 IR Inten    --      0.7297                 0.0157                 0.1463

                     16                     17                     18
                      A                      A                      A
 Frequencies --    192.0389               195.4321               250.3735
 Red. masses --      2.9861                 1.1274                 1.1196
 Frc consts  --      0.0649                 0.0254                 0.0414
 IR Inten    --      1.1437                 0.2570                 0.0012

                     19                     20                     21
                      A                      A                      A
 Frequencies --    259.3918               268.4961               322.0240
 Red. masses --      3.4752                 3.6538                 3.9941
 Frc consts  --      0.1378                 0.1552                 0.2440
 IR Inten    --      1.1579                 1.3351                 5.6467

                     22                     23                     24
                      A                      A                      A
 Frequencies --    344.5132               367.4586               419.0581
 Red. masses --      3.5076                 3.2610                 3.8464
 Frc consts  --      0.2453                 0.2594                 0.3980
 IR Inten    --      1.7569                 5.7480                 1.5234

                     25                     26                     27
                      A                      A                      A
 Frequencies --    435.2327               502.3860               505.7163
 Red. masses --      3.0290                 3.1445                 2.9591
 Frc consts  --      0.3381                 0.4676                 0.4459
 IR Inten    --      1.4326                 0.0225                 0.5957

                     28                     29                     30
                      A                      A                      A
 Frequencies --    660.4930               689.6655               738.0236
 Red. masses --      4.9362                 3.7137                 1.0582
 Frc consts  --      1.2688                 1.0407                 0.3396
 IR Inten    --     19.0725                 6.7187                 5.0358

                     31                     32                     33
                      A                      A                      A
 Frequencies --    738.6432               742.4441               751.3439
 Red. masses --      1.0640                 1.0761                 1.1076
 Frc consts  --      0.3420                 0.3495                 0.3684
 IR Inten    --      0.9466                 3.2618                 0.5183

                     34                     35                     36
                      A                      A                      A
 Frequencies --    769.8731               802.1770               846.9967
 Red. masses --      1.1556                 1.2058                 1.2457
 Frc consts  --      0.4035                 0.4571                 0.5265
 IR Inten    --      1.3998                 0.3553                 0.6238

                     37                     38                     39
                      A                      A                      A
 Frequencies --    899.7223               904.6155               950.4445
 Red. masses --      1.2625                 1.9732                 1.2824
 Frc consts  --      0.6022                 0.9514                 0.6825
 IR Inten    --      0.2895                 1.5777                 1.8775

                     40                     41                     42
                      A                      A                      A
 Frequencies --    955.5187               966.4687               991.4504
 Red. masses --      1.4754                 1.4171                 4.8821
 Frc consts  --      0.7937                 0.7799                 2.8275
 IR Inten    --      8.1200                10.7751                 0.0635

                     43                     44                     45
                      A                      A                      A
 Frequencies --   1000.2230              1011.6954              1023.7018
 Red. masses --      3.5836                 1.2686                 3.6754
 Frc consts  --      2.1124                 0.7650                 2.2693
 IR Inten    --      1.5922                 6.2767                 0.2107

                     46                     47                     48
                      A                      A                      A
 Frequencies --   1042.7824              1053.1015              1055.8162
 Red. masses --      3.0836                 3.0184                 1.3084
 Frc consts  --      1.9756                 1.9723                 0.8594
 IR Inten    --      1.3545                 1.7325                13.0499

                     49                     50                     51
                      A                      A                      A
 Frequencies --   1067.2634              1071.3666              1073.5628
 Red. masses --      2.4232                 2.3110                 2.2054
 Frc consts  --      1.6263                 1.5629                 1.4976
 IR Inten    --      2.8265                 1.2181                 3.1445

                     52                     53                     54
                      A                      A                      A
 Frequencies --   1075.1597              1077.7062              1103.9964
 Red. masses --      2.2620                 2.0446                 2.9972
 Frc consts  --      1.5406                 1.3991                 2.1523
 IR Inten    --      0.1577                48.5467                 2.5785

                     55                     56                     57
                      A                      A                      A
 Frequencies --   1113.8605              1150.6707              1222.1347
 Red. masses --      1.6388                 2.7658                 1.8754
 Frc consts  --      1.1980                 2.1576                 1.6503
 IR Inten    --     29.3925                 1.7940                 0.1170

                     58                     59                     60
                      A                      A                      A
 Frequencies --   1226.7222              1242.4240              1252.6846
 Red. masses --      1.2468                 1.5978                 1.3031
 Frc consts  --      1.1054                 1.4531                 1.2048
 IR Inten    --      3.6200                 0.2901                 0.8199

                     61                     62                     63
                      A                      A                      A
 Frequencies --   1270.9295              1283.9072              1299.8354
 Red. masses --      1.4242                 1.3012                 1.3163
 Frc consts  --      1.3554                 1.2637                 1.3104
 IR Inten    --      0.0591                 1.6611                 0.1274

                     64                     65                     66
                      A                      A                      A
 Frequencies --   1316.3789              1324.8419              1338.4750
 Red. masses --      1.3071                 1.2368                 1.0159
 Frc consts  --      1.3345                 1.2791                 1.0724
 IR Inten    --      0.3808                 0.0226                 0.1374

                     67                     68                     69
                      A                      A                      A
 Frequencies --   1342.1240              1346.5573              1347.5017
 Red. masses --      1.1224                 1.0789                 1.3173
 Frc consts  --      1.1912                 1.1526                 1.4093
 IR Inten    --      0.5474                 0.0366                 2.1052

                     70                     71                     72
                      A                      A                      A
 Frequencies --   1351.2584              1355.7707              1357.0075
 Red. masses --      1.0761                 1.1145                 1.0962
 Frc consts  --      1.1577                 1.2070                 1.1894
 IR Inten    --      0.4269                 0.0026                 0.3414

                     73                     74                     75
                      A                      A                      A
 Frequencies --   1358.1629              1378.6072              1401.8933
 Red. masses --      1.2101                 1.3772                 1.4401
 Frc consts  --      1.3152                 1.5421                 1.6675
 IR Inten    --      2.7907                 0.0469                 1.9349

                     76                     77                     78
                      A                      A                      A
 Frequencies --   1417.7182              1424.7651              1426.9084
 Red. masses --      1.5120                 1.6456                 1.6110
 Frc consts  --      1.7906                 1.9682                 1.9326
 IR Inten    --      0.0238                 0.6679                 0.2001

                     79                     80                     81
                      A                      A                      A
 Frequencies --   1427.7933              1441.5595              1474.0545
 Red. masses --      1.6316                 1.2510                 1.0694
 Frc consts  --      1.9597                 1.5317                 1.3691
 IR Inten    --      0.1794                 0.9981                 4.7424

                     82                     83                     84
                      A                      A                      A
 Frequencies --   1482.4611              1497.7670              1512.6078
 Red. masses --      1.0829                 1.0534                 1.0760
 Frc consts  --      1.4021                 1.3923                 1.4504
 IR Inten    --      3.1811                10.2475                 0.0800

                     85                     86                     87
                      A                      A                      A
 Frequencies --   1512.7690              1515.2091              1516.0050
 Red. masses --      1.0768                 1.0736                 1.0761
 Frc consts  --      1.4519                 1.4523                 1.4571
 IR Inten    --      0.0055                 0.0025                 0.0443

                     88                     89                     90
                      A                      A                      A
 Frequencies --   1517.7652              1521.4753              1527.0952
 Red. masses --      1.0725                 1.0811                 1.0853
 Frc consts  --      1.4557                 1.4745                 1.4912
 IR Inten    --      0.6697                 0.0467                 0.8250

                     91                     92                     93
                      A                      A                      A
 Frequencies --   1530.0495              1533.0447              1538.4723
 Red. masses --      1.0411                 1.0890                 1.0918
 Frc consts  --      1.4359                 1.5079                 1.5226
 IR Inten    --      5.7600                 0.1060                 1.4766

                     94                     95                     96
                      A                      A                      A
 Frequencies --   1542.7459              1545.5015              3008.9644
 Red. masses --      1.0947                 1.0975                 1.0581
 Frc consts  --      1.5351                 1.5446                 5.6444
 IR Inten    --      0.0793                 5.9048                 0.1951

                     97                     98                     99
                      A                      A                      A
 Frequencies --   3009.7734              3011.5572              3012.4296
 Red. masses --      1.0580                 1.0588                 1.0584
 Frc consts  --      5.6466                 5.6579                 5.6588
 IR Inten    --      0.0759                 0.9854                 0.0512

                    100                    101                    102
                      A                      A                      A
 Frequencies --   3015.3064              3016.4157              3021.5459
 Red. masses --      1.0588                 1.0595                 1.0602
 Frc consts  --      5.6721                 5.6800                 5.7027
 IR Inten    --      0.7674                 4.0409                 0.3519

                    103                    104                    105
                      A                      A                      A
 Frequencies --   3026.0995              3028.5802              3030.0334
 Red. masses --      1.0608                 1.0617                 1.0983
 Frc consts  --      5.7235                 5.7374                 5.9413
 IR Inten    --      7.5704               213.7942                 5.8568

                    106                    107                    108
                      A                      A                      A
 Frequencies --   3031.4543              3033.9999              3035.4564
 Red. masses --      1.0988                 1.0892                 1.0829
 Frc consts  --      5.9491                 5.9070                 5.8790
 IR Inten    --      3.9693                 6.1100                22.0045

                    109                    110                    111
                      A                      A                      A
 Frequencies --   3040.0980              3040.7601              3044.6886
 Red. masses --      1.0950                 1.0359                 1.0868
 Frc consts  --      5.9625                 5.6430                 5.9361
 IR Inten    --      4.8109                44.1316                 5.2817

                    112                    113                    114
                      A                      A                      A
 Frequencies --   3046.9812              3054.2475              3060.8455
 Red. masses --      1.0728                 1.1039                 1.0301
 Frc consts  --      5.8684                 6.0672                 5.6862
 IR Inten    --     27.5918                 1.4477                10.1341

                    115                    116                    117
                      A                      A                      A
 Frequencies --   3063.1006              3070.9412              3077.0322
 Red. masses --      1.1052                 1.1052                 1.1050
 Frc consts  --      6.1094                 6.1411                 6.1642
 IR Inten    --      8.8179                 2.6743               225.5390

                    118                    119                    120
                      A                      A                      A
 Frequencies --   3087.9475              3105.3400              3109.7273
 Red. masses --      1.1018                 1.1028                 1.1076
 Frc consts  --      6.1899                 6.2658                 6.3105
 IR Inten    --     27.6571                69.3621                35.2844

                    121                    122                    123
                      A                      A                      A
 Frequencies --   3109.9496              3157.9225              3167.1692
 Red. masses --      1.1019                 1.1070                 1.1053
 Frc consts  --      6.2790                 6.5045                 6.5322
 IR Inten    --     45.4718                 8.0508                 4.4220

 - Thermochemistry -
 -------------------
 Temperature     0.001 Kelvin.  Pressure   1.00000 Atm.
 Atom     1 has atomic number  8 and mass  15.99491

 Molecular mass:   232.18609 amu.
 Principal axes and moments of inertia in atomic units:
                           1         2         3
     Eigenvalues --   524.19102********************
           X            0.99998  -0.00611   0.00059
           Y            0.00613   0.99912  -0.04150
           Z           -0.00034   0.04150   0.99914
 This molecule is an asymmetric top.
 Rotational symmetry number  1.
 Warning -- assumption of classical behavior for rotation
           may cause significant error
 Rotational temperatures (Kelvin)      0.16523     0.00345     0.00341
 Rotational constants (GHZ):           3.44291     0.07182     0.07108
 Zero-point vibrational energy    1036325.5 (Joules/Mol)
                                  247.68774 (Kcal/Mol)
 Vibrational temperatures:     22.86    35.95    42.34    58.82    95.34
          (Kelvin)             96.88   106.11   149.74   158.66   178.32
                              200.83   205.95   215.74   240.80   245.99
                              276.30   281.18   360.23   373.21   386.31
                              463.32   495.68   528.69   602.93   626.20
                              722.82   727.61   950.30   992.27  1061.85
                             1062.74  1068.21  1081.02  1107.68  1154.15
                             1218.64  1294.50  1301.54  1367.48  1374.78
                             1390.53  1426.48  1439.10  1455.60  1472.88
                             1500.33  1515.18  1519.08  1535.55  1541.46
                             1544.62  1546.91  1550.58  1588.40  1602.60
                             1655.56  1758.38  1764.98  1787.57  1802.33
                             1828.58  1847.26  1870.17  1893.98  1906.15
                             1925.77  1931.02  1937.40  1938.75  1944.16
                             1950.65  1952.43  1954.09  1983.51  2017.01
                             2039.78  2049.92  2053.00  2054.28  2074.08
                             2120.84  2132.93  2154.95  2176.31  2176.54
                             2180.05  2181.19  2183.73  2189.06  2197.15
                             2201.40  2205.71  2213.52  2219.67  2223.63
                             4329.23  4330.39  4332.96  4334.21  4338.35
                             4339.95  4347.33  4353.88  4357.45  4359.54
                             4361.59  4365.25  4367.34  4374.02  4374.98
                             4380.63  4383.93  4394.38  4403.87  4407.12
                             4418.40  4427.16  4442.87  4467.89  4474.20
                             4474.52  4543.55  4556.85

 Zero-point correction=                           0.394716 (Hartree/Particle)
 Thermal correction to Energy=                    0.394716
 Thermal correction to Enthalpy=                  0.394716
 Thermal correction to Gibbs Free Energy=         0.394716
 Sum of electronic and zero-point Energies=           -985.245337
 Sum of electronic and thermal Energies=              -985.245337
 Sum of electronic and thermal Enthalpies=            -985.245337
 Sum of electronic and thermal Free Energies=         -985.245337

                     E (Thermal)             CV                S
                      KCal/Mol        Cal/Mol-Kelvin    Cal/Mol-Kelvin
 Total                  247.688              5.962            -23.800
 Electronic               0.000              0.000              0.000
 Translational            0.000              2.981            -20.395
 Rotational               0.000              2.981             -3.405
 Vibrational            247.688              0.000              0.000

 Optimization completed.
    -- Stationary point found.
 Normal termination of Gaussian 16 at Mon Oct 14 02:01:20 2019.
