 Gaussian 16, Revision A.03,
 Gaussian 16:  ES64L-G16RevA.03 25-Dec-2016

 --------------------------------------------------------------
 #P opt freq b3lyp/6-31g(d) geom=connectivity temperature=0.001
 --------------------------------------------------------------

 -------------------
 Title Card Required
 -------------------
 Symbolic Z-matrix:
 Charge =  1 Multiplicity = 1

 SCF Done:  E(RB3LYP) =  -985.930805803     A.U. after   15 cycles
 SCF Done:  E(RB3LYP) =  -985.964221846     A.U. after   10 cycles
 SCF Done:  E(RB3LYP) =  -985.995587307     A.U. after   11 cycles
 SCF Done:  E(RB3LYP) =  -985.997945293     A.U. after   11 cycles
 SCF Done:  E(RB3LYP) =  -985.999138461     A.U. after   11 cycles
 SCF Done:  E(RB3LYP) =  -986.000664713     A.U. after   12 cycles
 SCF Done:  E(RB3LYP) =  -986.001138496     A.U. after   11 cycles
 SCF Done:  E(RB3LYP) =  -986.002464763     A.U. after   10 cycles
 SCF Done:  E(RB3LYP) =  -986.004030206     A.U. after   12 cycles
 SCF Done:  E(RB3LYP) =  -986.004189966     A.U. after    9 cycles
 SCF Done:  E(RB3LYP) =  -986.004301656     A.U. after   11 cycles
 SCF Done:  E(RB3LYP) =  -986.004307362     A.U. after    9 cycles
 SCF Done:  E(RB3LYP) =  -986.004307928     A.U. after    9 cycles
 SCF Done:  E(RB3LYP) =  -986.004309213     A.U. after    8 cycles
 SCF Done:  E(RB3LYP) =  -986.004309244     A.U. after    6 cycles
 Optimization completed.
    -- Stationary point found.
 Normal termination of Gaussian 16 at Mon Oct 14 02:03:03 2019.

 --------------------------------------------------------------------
 #P Geom=AllCheck Guess=TCheck SCRF=Check GenChk RB3LYP/6-31G(d) Freq
 --------------------------------------------------------------------

 Structure from the checkpoint file:  "36_p.chk"
 -------------------
 Title Card Required
 -------------------
 Charge =  1 Multiplicity = 1

                         Standard orientation:
 ---------------------------------------------------------------------
 Center     Atomic      Atomic             Coordinates (Angstroms)
 Number     Number       Type             X           Y           Z
 ---------------------------------------------------------------------
      1          8           0        6.303030    1.397353    0.773136
      2         16           0        6.293949    0.249864   -0.404245
      3          6           0        7.583374   -0.855276    0.220068
      4          6           0        4.747799   -0.644157    0.003867
      5          6           0        3.511247    0.210232   -0.286931
      6          6           0        2.226353   -0.576462    0.034540
      7          6           0        0.958096    0.246984   -0.232709
      8          6           0       -0.330666   -0.524997    0.081423
      9          6           0       -1.602478    0.292101   -0.182654
     10          6           0       -2.893279   -0.476806    0.128548
     11          6           0       -4.166214    0.338419   -0.134231
     12          6           0       -5.457803   -0.429563    0.175408
     13          6           0       -6.731262    0.384631   -0.086711
     14          6           0       -8.023430   -0.382673    0.222047
     15          6           0       -9.290099    0.437511   -0.042165
     16          1           0        7.389889   -1.084617    1.270632
     17          1           0        7.564492   -1.761779   -0.392769
     18          1           0        8.541796   -0.345292    0.099705
     19          1           0        4.786071   -1.543599   -0.623948
     20          1           0        4.824966   -0.936727    1.056646
     21          1           0        3.545303    1.121682    0.320807
     22          1           0        3.505260    0.512234   -1.341881
     23          1           0        2.202289   -1.495501   -0.566983
     24          1           0        2.245621   -0.890132    1.087240
     25          1           0        0.989496    1.166788    0.368467
     26          1           0        0.946901    0.565114   -1.284903
     27          1           0       -0.357654   -1.445851   -0.518986
     28          1           0       -0.314815   -0.845342    1.133242
     29          1           0       -1.573380    1.213022    0.417992
     30          1           0       -1.615077    0.614153   -1.234239
     31          1           0       -2.920650   -1.397843   -0.472177
     32          1           0       -2.878725   -0.799847    1.179916
     33          1           0       -4.137885    1.259315    0.466837
     34          1           0       -4.179074    0.662337   -1.185443
     35          1           0       -5.485247   -1.350486   -0.425780
     36          1           0       -5.443954   -0.753930    1.226544
     37          1           0       -6.704434    1.305609    0.514687
     38          1           0       -6.745345    0.709568   -1.137814
     39          1           0       -8.050323   -1.302487   -0.379359
     40          1           0       -8.009300   -0.706978    1.272339
     41          1           0      -10.193715   -0.137880    0.187778
     42          1           0       -9.309342    1.346636    0.571331
     43          1           0       -9.350759    0.746617   -1.092892
     44          1           0        6.410341    2.278893    0.362843
 ---------------------------------------------------------------------

 SCF Done:  E(RB3LYP) =  -986.004309244     A.U. after    1 cycles

 The electronic state is 1-A.
 Alpha  occ. eigenvalues --  -89.20491 -19.40383 -10.41066 -10.40934 -10.34606
 Alpha  occ. eigenvalues --  -10.31064 -10.28373 -10.26463 -10.25071 -10.23998
 Alpha  occ. eigenvalues --  -10.23181 -10.22527 -10.22006 -10.21825 -10.20887
 Alpha  occ. eigenvalues --   -8.25647  -6.22229  -6.21754  -6.21259  -1.27101
 Alpha  occ. eigenvalues --   -1.03314  -0.95259  -0.89917  -0.86947  -0.85045
 Alpha  occ. eigenvalues --   -0.83183  -0.80831  -0.77949  -0.74673  -0.73540
 Alpha  occ. eigenvalues --   -0.71311  -0.68151  -0.65728  -0.65319  -0.64732
 Alpha  occ. eigenvalues --   -0.64167  -0.62996  -0.62086  -0.61598  -0.60766
 Alpha  occ. eigenvalues --   -0.57801  -0.56451  -0.54399  -0.53528  -0.52338
 Alpha  occ. eigenvalues --   -0.51848  -0.50630  -0.50235  -0.49160  -0.48025
 Alpha  occ. eigenvalues --   -0.47528  -0.45650  -0.45590  -0.45281  -0.43290
 Alpha  occ. eigenvalues --   -0.43123  -0.41084  -0.40797  -0.40330  -0.39141
 Alpha  occ. eigenvalues --   -0.38568  -0.37507  -0.36766  -0.36278  -0.34966
 Alpha virt. eigenvalues --   -0.22407  -0.16645  -0.12198  -0.09862  -0.06332
 Alpha virt. eigenvalues --   -0.04820  -0.04233  -0.02353  -0.01226   0.00012
 Alpha virt. eigenvalues --    0.01178   0.02337   0.02420   0.04150   0.04926

 Mulliken charges:
               1
     1  O   -0.627266
     2  S    0.811075
     3  C   -0.632404
     4  C   -0.468596
     5  C   -0.294981
     6  C   -0.268027
     7  C   -0.261633
     8  C   -0.259349
     9  C   -0.257143
    10  C   -0.255756
    11  C   -0.254986
    12  C   -0.254056
    13  C   -0.246975
    14  C   -0.248334
    15  C   -0.442311
    16  H    0.258231
    17  H    0.250791
    18  H    0.262012
    19  H    0.233848
    20  H    0.240284
    21  H    0.180305
    22  H    0.180093
    23  H    0.154675
    24  H    0.156261
    25  H    0.143108
    26  H    0.143568
    27  H    0.137904
    28  H    0.137939
    29  H    0.133632
    30  H    0.133842
    31  H    0.131791
    32  H    0.131753
    33  H    0.130029
    34  H    0.130127
    35  H    0.129229
    36  H    0.129192
    37  H    0.128104
    38  H    0.128160
    39  H    0.131775
    40  H    0.131743
    41  H    0.147663
    42  H    0.143017
    43  H    0.143056
    44  H    0.478611
 Sum of Mulliken charges =   1.00000

 Dipole moment (field-independent basis, Debye):
    X=             26.8117    Y=             -0.0018    Z=             -0.7052  Tot=             26.8210
 Quadrupole moment (field-independent basis, Debye-Ang):
   XX=             83.6351   YY=            -92.5613   ZZ=           -101.5665
   XY=              0.8450   XZ=             -3.8932   YZ=              0.0955

  Exact polarizability: 226.755  -1.915 141.357   0.969   0.752 129.445
 Approx polarizability: 229.142   0.541 215.558   0.614   5.716 204.434

                      1                      2                      3
                      A                      A                      A
 Frequencies --     15.5252                24.7135                27.0688
 Red. masses --      4.1374                 3.6680                 2.0736
 Frc consts  --      0.0006                 0.0013                 0.0009
 IR Inten    --      0.9579                 0.8174                 0.4600

                      4                      5                      6
                      A                      A                      A
 Frequencies --     41.1541                62.7146                66.5818
 Red. masses --      3.7304                 1.6521                 3.5831
 Frc consts  --      0.0037                 0.0038                 0.0094
 IR Inten    --      0.0353                 0.2704                 0.0509

                      7                      8                      9
                      A                      A                      A
 Frequencies --     74.7846               100.0397               109.5992
 Red. masses --      3.2682                 1.6671                 2.8837
 Frc consts  --      0.0108                 0.0098                 0.0204
 IR Inten    --      0.0548                 0.4651                 0.1017

                     10                     11                     12
                      A                      A                      A
 Frequencies --    122.5114               135.7836               140.3927
 Red. masses --      3.4344                 1.7569                 3.5909
 Frc consts  --      0.0304                 0.0191                 0.0417
 IR Inten    --      0.1697                 0.4704                 0.4288

                     13                     14                     15
                      A                      A                      A
 Frequencies --    148.2526               164.8974               169.8050
 Red. masses --      2.5223                 1.8351                 2.0726
 Frc consts  --      0.0327                 0.0294                 0.0352
 IR Inten    --      0.2623                 0.5604                 0.0363

                     16                     17                     18
                      A                      A                      A
 Frequencies --    176.7906               187.2917               220.4612
 Red. masses --      1.1263                 3.3307                 2.5277
 Frc consts  --      0.0207                 0.0688                 0.0724
 IR Inten    --      1.1829                 0.4374                64.3607

                     19                     20                     21
                      A                      A                      A
 Frequencies --    250.0014               256.9313               283.3112
 Red. masses --      1.1193                 3.2880                 2.7631
 Frc consts  --      0.0412                 0.1279                 0.1307
 IR Inten    --      0.0015                 1.6404                22.9836

                     22                     23                     24
                      A                      A                      A
 Frequencies --    316.2043               342.5458               363.0572
 Red. masses --      3.0617                 2.8836                 1.7702
 Frc consts  --      0.1804                 0.1994                 0.1375
 IR Inten    --      5.1450                 1.6400                21.0037

                     25                     26                     27
                      A                      A                      A
 Frequencies --    416.9180               431.6408               500.7687
 Red. masses --      3.4404                 2.9728                 3.1484
 Frc consts  --      0.3523                 0.3263                 0.4652
 IR Inten    --      1.6049                 2.3794                 0.7657

                     28                     29                     30
                      A                      A                      A
 Frequencies --    504.9886               669.1953               690.8152
 Red. masses --      2.9653                 4.6803                 5.6534
 Frc consts  --      0.4455                 1.2349                 1.5896
 IR Inten    --      0.1488                 6.1925                 0.0688

                     31                     32                     33
                      A                      A                      A
 Frequencies --    738.4278               739.7326               744.2676
 Red. masses --      1.0587                 1.0653                 1.0745
 Frc consts  --      0.3401                 0.3435                 0.3507
 IR Inten    --      4.8578                 1.2224                 4.2289

                     34                     35                     36
                      A                      A                      A
 Frequencies --    752.1866               769.3180               800.8432
 Red. masses --      1.1064                 1.1580                 1.2740
 Frc consts  --      0.3688                 0.4038                 0.4814
 IR Inten    --      0.5567                 0.6880                 4.8424

                     37                     38                     39
                      A                      A                      A
 Frequencies --    816.2223               848.4088               902.9326
 Red. masses --      6.6905                 1.2534                 1.2580
 Frc consts  --      2.6262                 0.5316                 0.6043
 IR Inten    --     54.4489                 1.7795                 0.0235

                     40                     41                     42
                      A                      A                      A
 Frequencies --    905.6069               960.0011               982.6901
 Red. masses --      1.9741                 1.2503                 2.4825
 Frc consts  --      0.9539                 0.6789                 1.4124
 IR Inten    --      1.2282                 0.1268                 3.6153

                     43                     44                     45
                      A                      A                      A
 Frequencies --    988.3275              1003.3557              1006.3109
 Red. masses --      4.6443                 1.3023                 2.6397
 Frc consts  --      2.6728                 0.7724                 1.5749
 IR Inten    --      3.4128                 3.5691                 3.8544

                     46                     47                     48
                      A                      A                      A
 Frequencies --   1015.7336              1018.4867              1034.5692
 Red. masses --      1.7768                 1.6222                 3.3378
 Frc consts  --      1.0801                 0.9914                 2.1049
 IR Inten    --      4.6205                 7.2774                 0.5380

                     49                     50                     51
                      A                      A                      A
 Frequencies --   1053.3745              1056.1649              1062.3131
 Red. masses --      2.6533                 2.7141                 1.1126
 Frc consts  --      1.7346                 1.7838                 0.7398
 IR Inten    --      1.5676                 0.3433                 0.4560

                     52                     53                     54
                      A                      A                      A
 Frequencies --   1068.5025              1072.7729              1074.9253
 Red. masses --      2.4575                 2.2467                 2.3089
 Frc consts  --      1.6531                 1.5234                 1.5718
 IR Inten    --      0.1981                 0.0508                 0.0673

                     55                     56                     57
                      A                      A                      A
 Frequencies --   1103.9650              1121.1861              1150.7334
 Red. masses --      2.9262                 1.1396                 2.8210
 Frc consts  --      2.1012                 0.8440                 2.2009
 IR Inten    --      2.2652                 5.9692                 6.1655

                     58                     59                     60
                      A                      A                      A
 Frequencies --   1221.1018              1235.9380              1237.4877
 Red. masses --      1.8757                 1.2675                 1.3326
 Frc consts  --      1.6478                 1.1407                 1.2024
 IR Inten    --      2.0034                 5.3946                45.0608

                     61                     62                     63
                      A                      A                      A
 Frequencies --   1247.4643              1262.0144              1272.1657
 Red. masses --      1.3013                 1.2701                 1.3799
 Frc consts  --      1.1932                 1.1918                 1.3158
 IR Inten    --     48.3892                 0.8529                 2.8661

                     64                     65                     66
                      A                      A                      A
 Frequencies --   1289.9965              1300.4773              1320.0489
 Red. masses --      1.2791                 1.2960                 1.2858
 Frc consts  --      1.2541                 1.2914                 1.3201
 IR Inten    --      5.3315                 0.8849                 1.1189

                     67                     68                     69
                      A                      A                      A
 Frequencies --   1325.1636              1340.0611              1341.8872
 Red. masses --      1.2266                 1.0170                 1.1332
 Frc consts  --      1.2691                 1.0760                 1.2022
 IR Inten    --      0.3031                 1.8069                 0.0087

                     70                     71                     72
                      A                      A                      A
 Frequencies --   1348.3320              1349.7443              1352.1573
 Red. masses --      1.0764                 1.2931                 1.0894
 Frc consts  --      1.1530                 1.3880                 1.1736
 IR Inten    --      0.4753                 7.0245                 0.7838

                     73                     74                     75
                      A                      A                      A
 Frequencies --   1357.5299              1358.8674              1374.6408
 Red. masses --      1.1029                 1.0963                 1.3327
 Frc consts  --      1.1975                 1.1927                 1.4838
 IR Inten    --      0.2192                 0.0296                 2.4445

                     76                     77                     78
                      A                      A                      A
 Frequencies --   1390.0789              1398.0166              1411.9964
 Red. masses --      1.2090                 1.3496                 1.4653
 Frc consts  --      1.3764                 1.5541                 1.7213
 IR Inten    --      1.9972                 5.0193                 0.0108

                     79                     80                     81
                      A                      A                      A
 Frequencies --   1422.1051              1426.7853              1427.6103
 Red. masses --      1.5567                 1.6275                 1.6092
 Frc consts  --      1.8549                 1.9520                 1.9324
 IR Inten    --      0.1569                 0.0480                 0.6503

                     82                     83                     84
                      A                      A                      A
 Frequencies --   1442.9812              1461.1352              1470.6478
 Red. masses --      1.2483                 1.0676                 1.0678
 Frc consts  --      1.5314                 1.3429                 1.3606
 IR Inten    --      1.1218                12.4915                12.3471

                     85                     86                     87
                      A                      A                      A
 Frequencies --   1478.7466              1512.5948              1512.7748
 Red. masses --      1.0481                 1.0758                 1.0768
 Frc consts  --      1.3503                 1.4503                 1.4519
 IR Inten    --     21.5406                 0.6607                 0.0389

                     88                     89                     90
                      A                      A                      A
 Frequencies --   1514.9913              1515.8453              1517.5262
 Red. masses --      1.0728                 1.0765                 1.0706
 Frc consts  --      1.4507                 1.4574                 1.4526
 IR Inten    --      1.2918                 0.0588                 5.0673

                     91                     92                     93
                      A                      A                      A
 Frequencies --   1520.8789              1526.3162              1530.2771
 Red. masses --      1.0802                 1.0850                 1.0409
 Frc consts  --      1.4722                 1.4893                 1.4361
 IR Inten    --      0.1041                 1.5118                 6.4874

                     94                     95                     96
                      A                      A                      A
 Frequencies --   1532.1144              1537.5162              1542.0031
 Red. masses --      1.0894                 1.0925                 1.0950
 Frc consts  --      1.5067                 1.5216                 1.5341
 IR Inten    --      0.1884                 2.3992                 0.3433

                     97                     98                     99
                      A                      A                      A
 Frequencies --   1545.1482              3011.3355              3012.2793
 Red. masses --      1.0975                 1.0582                 1.0582
 Frc consts  --      1.5438                 5.6535                 5.6574
 IR Inten    --      7.0224                 0.6305                 0.1651

                    100                    101                    102
                      A                      A                      A
 Frequencies --   3015.0111              3016.8617              3020.3420
 Red. masses --      1.0586                 1.0588                 1.0591
 Frc consts  --      5.6699                 5.6779                 5.6924
 IR Inten    --      0.6764                 0.5248                 1.1812

                    103                    104                    105
                      A                      A                      A
 Frequencies --   3024.1068              3028.0316              3030.4888
 Red. masses --      1.0594                 1.0597                 1.0596
 Frc consts  --      5.7080                 5.7246                 5.7333
 IR Inten    --      1.9557                 5.6718               136.4418

                    106                    107                    108
                      A                      A                      A
 Frequencies --   3032.4889              3035.6371              3036.7010
 Red. masses --      1.0997                 1.1006                 1.0591
 Frc consts  --      5.9585                 5.9755                 5.7545
 IR Inten    --      0.0408                 0.0078                83.5431

                    109                    110                    111
                      A                      A                      A
 Frequencies --   3040.3993              3043.2852              3046.6865
 Red. masses --      1.1018                 1.0361                 1.1032
 Frc consts  --      6.0011                 5.6539                 6.0333
 IR Inten    --      0.0152                41.5096                 0.0128

                    112                    113                    114
                      A                      A                      A
 Frequencies --   3053.7946              3055.4954              3061.9407
 Red. masses --      1.1011                 1.0637                 1.1046
 Frc consts  --      6.0503                 5.8508                 6.1015
 IR Inten    --      1.4990                16.2186                 1.3005

                    115                    116                    117
                      A                      A                      A
 Frequencies --   3067.2681              3069.8298              3076.7894
 Red. masses --      1.0613                 1.1028                 1.1050
 Frc consts  --      5.8831                 6.1233                 6.1633
 IR Inten    --      4.9365                 9.1423                71.0191

                    118                    119                    120
                      A                      A                      A
 Frequencies --   3077.7638              3084.1141              3106.5091
 Red. masses --      1.0297                 1.1054                 1.1057
 Frc consts  --      5.7470                 6.1949                 6.2871
 IR Inten    --      4.8059               138.1563                26.9594

                    121                    122                    123
                      A                      A                      A
 Frequencies --   3107.4254              3114.9788              3135.9311
 Red. masses --      1.1029                 1.1018                 1.1084
 Frc consts  --      6.2746                 6.2987                 6.4221
 IR Inten    --     67.9210                40.0717                 1.2772

                    124                    125                    126
                      A                      A                      A
 Frequencies --   3178.9676              3193.5622              3674.1023
 Red. masses --      1.1072                 1.1099                 1.0681
 Frc consts  --      6.5922                 6.6692                 8.4946
 IR Inten    --      5.1925                 5.7442               215.1739

 - Thermochemistry -
 -------------------
 Temperature     0.001 Kelvin.  Pressure   1.00000 Atm.
 Atom     1 has atomic number  8 and mass  15.99491

 Molecular mass:   233.19391 amu.
 Principal axes and moments of inertia in atomic units:
                           1         2         3
     Eigenvalues --   525.70892********************
           X            0.99999  -0.00375   0.00103
           Y            0.00379   0.99922  -0.03923
           Z           -0.00088   0.03923   0.99923
 This molecule is an asymmetric top.
 Rotational symmetry number  1.
 Warning -- assumption of classical behavior for rotation
           may cause significant error
 Rotational temperatures (Kelvin)      0.16476     0.00342     0.00339
 Rotational constants (GHZ):           3.43297     0.07121     0.07056
 Zero-point vibrational energy    1067256.8 (Joules/Mol)
                                  255.08049 (Kcal/Mol)
 Vibrational temperatures:     22.34    35.56    38.95    59.21    90.23
          (Kelvin)             95.80   107.60   143.93   157.69   176.27
                              195.36   201.99   213.30   237.25   244.31
                              254.36   269.47   317.19   359.70   369.67
                              407.62   454.95   492.85   522.36   599.85
                              621.03   720.49   726.57   962.82   993.93
                             1062.43  1064.31  1070.84  1082.23  1106.88
                             1152.23  1174.36  1220.67  1299.12  1302.97
                             1381.23  1413.87  1421.98  1443.61  1447.86
                             1461.41  1465.38  1488.51  1515.57  1519.59
                             1528.43  1537.34  1543.48  1546.58  1588.36
                             1613.14  1655.65  1756.89  1778.24  1780.47
                             1794.82  1815.76  1830.36  1856.02  1871.10
                             1899.26  1906.61  1928.05  1930.68  1939.95
                             1941.98  1945.45  1953.18  1955.11  1977.80
                             2000.01  2011.43  2031.55  2046.09  2052.83
                             2054.01  2076.13  2102.25  2115.93  2127.59
                             2176.29  2176.55  2179.73  2180.96  2183.38
                             2188.21  2196.03  2201.73  2204.37  2212.14
                             2218.60  2223.12  4332.64  4334.00  4337.93
                             4340.59  4345.60  4351.02  4356.66  4360.20
                             4363.08  4367.60  4369.14  4374.46  4378.61
                             4383.50  4393.73  4396.18  4405.45  4413.11
                             4416.80  4426.81  4428.22  4437.35  4469.57
                             4470.89  4481.76  4511.91  4573.83  4594.82
                             5286.21

 Zero-point correction=                           0.406497 (Hartree/Particle)
 Thermal correction to Energy=                    0.406497
 Thermal correction to Enthalpy=                  0.406497
 Thermal correction to Gibbs Free Energy=         0.406497
 Sum of electronic and zero-point Energies=           -985.597813
 Sum of electronic and thermal Energies=              -985.597813
 Sum of electronic and thermal Enthalpies=            -985.597813
 Sum of electronic and thermal Free Energies=         -985.597813

                     E (Thermal)             CV                S
                      KCal/Mol        Cal/Mol-Kelvin    Cal/Mol-Kelvin
 Total                  255.080              5.962            -23.768
 Electronic               0.000              0.000              0.000
 Translational            0.000              2.981            -20.382
 Rotational               0.000              2.981             -3.387
 Vibrational            255.080              0.000              0.000

 Optimization completed.
    -- Stationary point found.
 Normal termination of Gaussian 16 at Mon Oct 14 02:04:27 2019.
