 Gaussian 16, Revision A.03,
 Gaussian 16:  ES64L-G16RevA.03 25-Dec-2016

 --------------------------------------------------------------
 #p opt freq b3lyp/6-31g(d) geom=connectivity temperature=0.001
 --------------------------------------------------------------

 -------------------
 Title Card Required
 -------------------
 Symbolic Z-matrix:
 Charge =  1 Multiplicity = 1

 SCF Done:  E(RB3LYP) =  -323.777250406     A.U. after   15 cycles
 SCF Done:  E(RB3LYP) =  -323.803048322     A.U. after   14 cycles
 SCF Done:  E(RB3LYP) =  -323.809929918     A.U. after   13 cycles
 SCF Done:  E(RB3LYP) =  -323.810700055     A.U. after   11 cycles
 SCF Done:  E(RB3LYP) =  -323.810895109     A.U. after   11 cycles
 SCF Done:  E(RB3LYP) =  -323.810992000     A.U. after   11 cycles
 SCF Done:  E(RB3LYP) =  -323.811063055     A.U. after   11 cycles
 SCF Done:  E(RB3LYP) =  -323.811144908     A.U. after   11 cycles
 SCF Done:  E(RB3LYP) =  -323.811204635     A.U. after   11 cycles
 SCF Done:  E(RB3LYP) =  -323.811220341     A.U. after    9 cycles
 SCF Done:  E(RB3LYP) =  -323.811221597     A.U. after    8 cycles
 Optimization completed.
    -- Stationary point found.
 Normal termination of Gaussian 16 at Mon Oct 14 11:06:22 2019.

 --------------------------------------------------------------------
 #P Geom=AllCheck Guess=TCheck SCRF=Check GenChk RB3LYP/6-31G(d) Freq
 --------------------------------------------------------------------

 Structure from the checkpoint file:  "3_p.chk"
 -------------------
 Title Card Required
 -------------------
 Charge =  1 Multiplicity = 1

                         Standard orientation:
 ---------------------------------------------------------------------
 Center     Atomic      Atomic             Coordinates (Angstroms)
 Number     Number       Type             X           Y           Z
 ---------------------------------------------------------------------
      1          8           0       -2.248066    0.000114   -0.103802
      2          7           0       -0.867931   -0.000029    0.006654
      3          6           0       -0.233425   -1.192506   -0.006568
      4          6           0        1.151527   -1.209936    0.003510
      5          6           0        1.852652    0.000005    0.011081
      6          6           0        1.151510    1.209956    0.003544
      7          6           0       -0.233421    1.192496   -0.006508
      8          1           0       -0.870558   -2.068204   -0.033109
      9          1           0        1.665309   -2.164683   -0.002412
     10          1           0        2.938004   -0.000055    0.014136
     11          1           0        1.665204    2.164740   -0.002604
     12          1           0       -0.870566    2.068193   -0.032878
     13          1           0       -2.600405   -0.000790    0.810358
 ---------------------------------------------------------------------

 SCF Done:  E(RB3LYP) =  -323.811221597     A.U. after    1 cycles

 The electronic state is 1-A.
 Alpha  occ. eigenvalues --  -19.41515 -14.68900 -10.45753 -10.45752 -10.41849
 Alpha  occ. eigenvalues --  -10.41181 -10.41179  -1.33665  -1.15269  -1.01303
 Alpha  occ. eigenvalues --   -1.00190  -0.87284  -0.85557  -0.79576  -0.72436
 Alpha  occ. eigenvalues --   -0.71562  -0.69150  -0.66806  -0.65559  -0.59628
 Alpha  occ. eigenvalues --   -0.58372  -0.58011  -0.53201  -0.50092  -0.48151
 Alpha virt. eigenvalues --   -0.25885  -0.22289  -0.14265  -0.10112  -0.07360
 Alpha virt. eigenvalues --   -0.04634  -0.04291  -0.03323   0.00362   0.00761
 Alpha virt. eigenvalues --    0.04932   0.07637   0.11288   0.11659   0.24252

 Mulliken charges:
               1
     1  O   -0.444722
     2  N   -0.157744
     3  C    0.144985
     4  C   -0.171800
     5  C   -0.050661
     6  C   -0.171787
     7  C    0.145010
     8  H    0.263463
     9  H    0.237966
    10  H    0.236120
    11  H    0.237967
    12  H    0.263478
    13  H    0.467727
 Sum of Mulliken charges =   1.00000

 Dipole moment (field-independent basis, Debye):
    X=              0.4682    Y=             -0.0016    Z=              1.6416  Tot=              1.7070
 Quadrupole moment (field-independent basis, Debye-Ang):
   XX=            -22.2137   YY=            -25.4383   ZZ=            -38.8313
   XY=              0.0045   XZ=             -4.7838   YZ=             -0.0017

  Exact polarizability:  74.020   0.001  65.173  -1.193  -0.001  23.662
 Approx polarizability: 122.526   0.001 110.800  -0.506  -0.002  35.453

                      1                      2                      3
                      A                      A                      A
 Frequencies --    205.4746               223.5012               419.2316
 Red. masses --      1.1781                 4.2242                 2.9978
 Frc consts  --      0.0293                 0.1243                 0.3104
 IR Inten    --    118.1918                 4.4007                 3.8606

                      4                      5                      6
                      A                      A                      A
 Frequencies --    434.7888               462.3620               541.7346
 Red. masses --      3.6862                 3.4550                 7.3329
 Frc consts  --      0.4106                 0.4352                 1.2679
 IR Inten    --      0.1433                11.6647                 0.7368

                      7                      8                      9
                      A                      A                      A
 Frequencies --    652.0449               673.3420               781.1503
 Red. masses --      6.3374                 2.4784                 1.3564
 Frc consts  --      1.5875                 0.6620                 0.4876
 IR Inten    --      0.0760                29.3279                60.5302

                     10                     11                     12
                      A                      A                      A
 Frequencies --    826.7966               859.0894               966.0146
 Red. masses --      6.1417                 1.2620                 1.2927
 Frc consts  --      2.4736                 0.5488                 0.7108
 IR Inten    --     10.5511                 0.2629                 2.2231

                     13                     14                     15
                      A                      A                      A
 Frequencies --    996.6781              1043.8115              1045.3787
 Red. masses --      1.3617                 1.3811                 4.0228
 Frc consts  --      0.7970                 0.8866                 2.5902
 IR Inten    --      0.0104                 0.1767                 0.1231

                     16                     17                     18
                      A                      A                      A
 Frequencies --   1075.7241              1117.8154              1198.0640
 Red. masses --      2.4280                 1.5363                 2.7524
 Frc consts  --      1.6554                 1.1310                 2.3277
 IR Inten    --      2.1465                 3.2086                13.4693

                     19                     20                     21
                      A                      A                      A
 Frequencies --   1200.8328              1222.0899              1338.5922
 Red. masses --      1.0934                 1.3891                 7.3247
 Frc consts  --      0.9289                 1.2223                 7.7328
 IR Inten    --      1.6045                10.1325                17.2745

                     22                     23                     24
                      A                      A                      A
 Frequencies --   1374.1622              1425.5649              1522.7706
 Red. masses --      1.2794                 1.1964                 2.3791
 Frc consts  --      1.4234                 1.4325                 3.2504
 IR Inten    --      2.6170                88.6023                40.3164

                     25                     26                     27
                      A                      A                      A
 Frequencies --   1529.6231              1629.3766              1663.5573
 Red. masses --      2.0738                 6.1644                 5.0049
 Frc consts  --      2.8588                 9.6424                 8.1606
 IR Inten    --      9.0081                 0.2254                20.2785

                     28                     29                     30
                      A                      A                      A
 Frequencies --   3234.1668              3247.0370              3249.5412
 Red. masses --      1.0913                 1.0927                 1.0963
 Frc consts  --      6.7254                 6.7876                 6.8208
 IR Inten    --      0.0705                 2.9572                10.8156

                     31                     32                     33
                      A                      A                      A
 Frequencies --   3267.7893              3269.3294              3636.7561
 Red. masses --      1.0965                 1.0988                 1.0683
 Frc consts  --      6.8986                 6.9194                 8.3250
 IR Inten    --     32.2274                 6.4227               134.8104

 - Thermochemistry -
 -------------------
 Temperature     0.001 Kelvin.  Pressure   1.00000 Atm.
 Atom     1 has atomic number  8 and mass  15.99491

 Molecular mass:    96.04494 amu.
 Principal axes and moments of inertia in atomic units:
                           1         2         3
     Eigenvalues --   314.77133 675.39948 984.36309
           X            0.99994   0.00002  -0.01059
           Y           -0.00002   1.00000  -0.00001
           Z            0.01059   0.00001   0.99994
 This molecule is an asymmetric top.
 Rotational symmetry number  1.
 Rotational temperatures (Kelvin)      0.27516     0.12824     0.08799
 Rotational constants (GHZ):           5.73350     2.67211     1.83341
 Zero-point vibrational energy     277140.0 (Joules/Mol)
                                   66.23805 (Kcal/Mol)
 Vibrational temperatures:    295.63   321.57   603.18   625.56   665.24
          (Kelvin)            779.44   938.15   968.79  1123.90  1189.58
                             1236.04  1389.88  1434.00  1501.81  1504.07
                             1547.73  1608.29  1723.75  1727.73  1758.31
                             1925.94  1977.11  2051.07  2190.93  2200.79
                             2344.31  2393.49  4653.24  4671.76  4675.37
                             4701.62  4703.84  5232.48

 Zero-point correction=                           0.105557 (Hartree/Particle)
 Thermal correction to Energy=                    0.105557
 Thermal correction to Enthalpy=                  0.105557
 Thermal correction to Gibbs Free Energy=         0.105557
 Sum of electronic and zero-point Energies=           -323.705665
 Sum of electronic and thermal Energies=              -323.705665
 Sum of electronic and thermal Enthalpies=            -323.705665
 Sum of electronic and thermal Free Energies=         -323.705664

                     E (Thermal)             CV                S
                      KCal/Mol        Cal/Mol-Kelvin    Cal/Mol-Kelvin
 Total                   66.238              5.962            -33.760
 Electronic               0.000              0.000              0.000
 Translational            0.000              2.981            -23.026
 Rotational               0.000              2.981            -10.735
 Vibrational             66.238              0.000              0.000

 Optimization completed.
    -- Stationary point found.
 Normal termination of Gaussian 16 at Mon Oct 14 11:06:33 2019.
