 Gaussian 16, Revision A.03,
 Gaussian 16:  ES64L-G16RevA.03 25-Dec-2016

 --------------------------------------------------------------
 #P opt freq b3lyp/6-31g(d) geom=connectivity temperature=0.001
 --------------------------------------------------------------

 -------------------
 Title Card Required
 -------------------
 Symbolic Z-matrix:
 Charge =  0 Multiplicity = 1

 SCF Done:  E(RB3LYP) =  -477.087846093     A.U. after   16 cycles
 SCF Done:  E(RB3LYP) =  -477.093858471     A.U. after   14 cycles
 SCF Done:  E(RB3LYP) =  -477.094566024     A.U. after   12 cycles
 SCF Done:  E(RB3LYP) =  -477.094623109     A.U. after   10 cycles
 SCF Done:  E(RB3LYP) =  -477.094627374     A.U. after    9 cycles
 Optimization completed.
    -- Stationary point found.
 Normal termination of Gaussian 16 at Mon Oct 14 02:11:31 2019.

 --------------------------------------------------------------------
 #P Geom=AllCheck Guess=TCheck SCRF=Check GenChk RB3LYP/6-31G(d) Freq
 --------------------------------------------------------------------

 Structure from the checkpoint file:  "4.chk"
 -------------------
 Title Card Required
 -------------------
 Charge =  0 Multiplicity = 1

                         Standard orientation:
 ---------------------------------------------------------------------
 Center     Atomic      Atomic             Coordinates (Angstroms)
 Number     Number       Type             X           Y           Z
 ---------------------------------------------------------------------
      1          8           0       -1.731321    1.988418   -0.000000
      2          7           0       -1.370923    0.764154   -0.000000
      3          6           0       -2.284316   -0.234230   -0.000000
      4          6           0       -1.909970   -1.584149   -0.000000
      5          6           0       -0.582902   -1.949964   -0.000000
      6          6           0        0.403629   -0.930630    0.000000
      7          6           0        0.000000    0.433966   -0.000000
      8          6           0        0.942329    1.479613    0.000000
      9          6           0        2.287507    1.175274    0.000000
     10          6           0        2.717775   -0.172554    0.000000
     11          6           0        1.798894   -1.198618    0.000000
     12          1           0       -3.308448    0.114101   -0.000000
     13          1           0       -2.699411   -2.329070   -0.000000
     14          1           0       -0.282852   -2.993076    0.000000
     15          1           0        0.570706    2.496556    0.000000
     16          1           0        3.022214    1.975171    0.000000
     17          1           0        3.780694   -0.397316    0.000000
     18          1           0        2.126460   -2.235028    0.000000
 ---------------------------------------------------------------------

 SCF Done:  E(RB3LYP) =  -477.094627374     A.U. after    1 cycles

 The electronic state is 1-A'.
 Alpha  occ. eigenvalues --  -19.11705 -14.47782 -10.23985 -10.23266 -10.21989
 Alpha  occ. eigenvalues --  -10.21395 -10.20754 -10.20659 -10.20585 -10.20431
 Alpha  occ. eigenvalues --  -10.20071  -1.10276  -0.90210  -0.85280  -0.80129
 Alpha  occ. eigenvalues --   -0.77156  -0.74936  -0.66122  -0.65162  -0.60699
 Alpha  occ. eigenvalues --   -0.55104  -0.52969  -0.51835  -0.47277  -0.46887
 Alpha  occ. eigenvalues --   -0.45700  -0.44693  -0.44310  -0.42239  -0.39878
 Alpha  occ. eigenvalues --   -0.37703  -0.36753  -0.35507  -0.33222  -0.26544
 Alpha  occ. eigenvalues --   -0.26451  -0.24581  -0.20356
 Alpha virt. eigenvalues --   -0.06210  -0.02590   0.01111   0.07787   0.08689
 Alpha virt. eigenvalues --    0.09819   0.12959   0.15759   0.15917   0.17345
 Alpha virt. eigenvalues --    0.17940   0.18720   0.20995   0.24003   0.24715

 Mulliken charges:
               1
     1  O   -0.515756
     2  N   -0.086784
     3  C    0.059832
     4  C   -0.181843
     5  C   -0.148386
     6  C    0.127669
     7  C    0.270161
     8  C   -0.133502
     9  C   -0.141461
    10  C   -0.119969
    11  C   -0.205213
    12  H    0.177583
    13  H    0.152073
    14  H    0.142482
    15  H    0.182086
    16  H    0.142614
    17  H    0.139515
    18  H    0.138900
 Sum of Mulliken charges =  -0.00000

 Dipole moment (field-independent basis, Debye):
    X=              1.6533    Y=             -3.2534    Z=             -0.0000  Tot=              3.6494
 Quadrupole moment (field-independent basis, Debye-Ang):
   XX=            -54.5791   YY=            -61.5479   ZZ=            -65.6009
   XY=              7.4725   XZ=              0.0000   YZ=              0.0000

  Exact polarizability: 148.083   4.983 125.931   0.000  -0.000  33.908
 Approx polarizability: 256.515  -5.658 270.112   0.000  -0.000  53.305

                      1                      2                      3
                     A"                     A"                     A"
 Frequencies --    136.0727               182.5769               263.0989
 Red. masses --      4.9539                 4.0631                 4.3790
 Frc consts  --      0.0540                 0.0798                 0.1786
 IR Inten    --      4.2325                 0.7181                 0.0991

                      4                      5                      6
                     A'                     A"                     A"
 Frequencies --    322.3581               431.9592               480.8806
 Red. masses --      6.1032                 3.3252                 3.5149
 Frc consts  --      0.3737                 0.3656                 0.4789
 IR Inten    --      7.0245                 2.0896                 0.0101

                      7                      8                      9
                     A'                     A'                     A'
 Frequencies --    488.2947               496.6467               562.0579
 Red. masses --      5.8283                 7.7818                 6.7530
 Frc consts  --      0.8188                 1.1309                 1.2569
 IR Inten    --      1.3027                 3.1134                 2.6788

                     10                     11                     12
                     A"                     A'                     A"
 Frequencies --    581.3458               597.7072               648.7480
 Red. masses --      3.5223                 7.1371                 3.3954
 Frc consts  --      0.7014                 1.5023                 0.8420
 IR Inten    --      5.2679                 3.6285                 1.5333

                     13                     14                     15
                     A"                     A'                     A"
 Frequencies --    741.0870               742.5999               784.1756
 Red. masses --      1.5725                 5.8395                 1.8366
 Frc consts  --      0.5088                 1.8973                 0.6654
 IR Inten    --      1.7307                 2.2639                16.0337

                     16                     17                     18
                     A"                     A'                     A"
 Frequencies --    805.8297               808.1765               874.1401
 Red. masses --      1.5723                 5.5800                 1.4530
 Frc consts  --      0.6016                 2.1473                 0.6541
 IR Inten    --     83.2501                11.9812                 1.6492

                     19                     20                     21
                     A"                     A'                     A"
 Frequencies --    892.8019               902.8877               958.2705
 Red. masses --      1.5084                 4.5815                 1.2577
 Frc consts  --      0.7084                 2.2005                 0.6805
 IR Inten    --      0.2106                10.1407                 0.0290

                     22                     23                     24
                     A"                     A"                     A'
 Frequencies --    973.9761              1000.1279              1047.6868
 Red. masses --      1.3293                 1.2726                 2.3304
 Frc consts  --      0.7430                 0.7500                 1.5071
 IR Inten    --      1.9448                 0.1777                 5.4469

                     25                     26                     27
                     A'                     A'                     A'
 Frequencies --   1084.6910              1119.9222              1170.0820
 Red. masses --      2.4592                 1.9672                 1.2164
 Frc consts  --      1.7047                 1.4537                 0.9812
 IR Inten    --      1.7060                 7.4049                 3.2701

                     28                     29                     30
                     A'                     A'                     A'
 Frequencies --   1178.6898              1209.2872              1247.9132
 Red. masses --      1.3604                 1.4301                 2.2826
 Frc consts  --      1.1136                 1.2322                 2.0943
 IR Inten    --      6.7819                10.6457                 0.8392

                     31                     32                     33
                     A'                     A'                     A'
 Frequencies --   1280.7539              1313.2468              1368.9935
 Red. masses --      1.7147                 3.1502                 2.4350
 Frc consts  --      1.6572                 3.2009                 2.6887
 IR Inten    --      8.8305                23.5976                66.5142

                     34                     35                     36
                     A'                     A'                     A'
 Frequencies --   1413.1937              1451.9372              1488.9668
 Red. masses --      6.8219                 3.0825                 2.2706
 Frc consts  --      8.0271                 3.8287                 2.9659
 IR Inten    --      4.4398                94.7754                17.9157

                     37                     38                     39
                     A'                     A'                     A'
 Frequencies --   1495.9931              1570.0787              1619.0089
 Red. masses --      2.1743                 3.7840                 5.1889
 Frc consts  --      2.8670                 5.4959                 8.0135
 IR Inten    --      7.9362                10.8721                39.0367

                     40                     41                     42
                     A'                     A'                     A'
 Frequencies --   1642.9658              1676.5912              3186.9030
 Red. masses --      6.3965                 6.1978                 1.0864
 Frc consts  --     10.1730                10.2646                 6.5012
 IR Inten    --     15.0622                 0.3693                 0.9822

                     43                     44                     45
                     A'                     A'                     A'
 Frequencies --   3199.5896              3205.6317              3212.3379
 Red. masses --      1.0910                 1.0874                 1.0956
 Frc consts  --      6.5803                 6.5837                 6.6611
 IR Inten    --     15.8580                 1.5557                21.9680

                     46                     47                     48
                     A'                     A'                     A'
 Frequencies --   3221.1093              3254.3160              3267.2450
 Red. masses --      1.0956                 1.0924                 1.0932
 Frc consts  --      6.6974                 6.8162                 6.8754
 IR Inten    --     11.8698                 3.4445                 0.2539

 - Thermochemistry -
 -------------------
 Temperature     0.001 Kelvin.  Pressure   1.00000 Atm.
 Atom     1 has atomic number  8 and mass  15.99491

 Molecular mass:   145.05276 amu.
 Principal axes and moments of inertia in atomic units:
                           1         2         3
     Eigenvalues --   894.324631552.712072447.03669
           X            0.99914  -0.04152   0.00000
           Y            0.04152   0.99914   0.00000
           Z           -0.00000   0.00000   1.00000
 This molecule is an asymmetric top.
 Rotational symmetry number  1.
 Warning -- assumption of classical behavior for rotation
           may cause significant error
 Rotational temperatures (Kelvin)      0.09685     0.05578     0.03540
 Rotational constants (GHZ):           2.01799     1.16232     0.73752
 Zero-point vibrational energy     368467.5 (Joules/Mol)
                                   88.06584 (Kcal/Mol)
 Vibrational temperatures:    195.78   262.69   378.54   463.80   621.49
          (Kelvin)            691.88   702.55   714.56   808.68   836.43
                              859.97   933.40  1066.26  1068.44  1128.25
                             1159.41  1162.79  1257.69  1284.54  1299.05
                             1378.74  1401.33  1438.96  1507.39  1560.63
                             1611.32  1683.49  1695.87  1739.89  1795.47
                             1842.72  1889.47  1969.68  2033.27  2089.01
                             2142.29  2152.40  2258.99  2329.39  2363.86
                             2412.24  4585.24  4603.50  4612.19  4621.84
                             4634.46  4682.23  4700.84

 Zero-point correction=                           0.140342 (Hartree/Particle)
 Thermal correction to Energy=                    0.140342
 Thermal correction to Enthalpy=                  0.140342
 Thermal correction to Gibbs Free Energy=         0.140342
 Sum of electronic and zero-point Energies=           -476.954286
 Sum of electronic and thermal Energies=              -476.954286
 Sum of electronic and thermal Enthalpies=            -476.954286
 Sum of electronic and thermal Free Energies=         -476.954285

                     E (Thermal)             CV                S
                      KCal/Mol        Cal/Mol-Kelvin    Cal/Mol-Kelvin
 Total                   88.066              5.962            -29.762
 Electronic               0.000              0.000              0.000
 Translational            0.000              2.981            -21.797
 Rotational               0.000              2.981             -7.965
 Vibrational             88.066              0.000              0.000

 Optimization completed.
    -- Stationary point found.
 Normal termination of Gaussian 16 at Mon Oct 14 02:11:51 2019.
