 Gaussian 16, Revision A.03,
 Gaussian 16:  ES64L-G16RevA.03 25-Dec-2016

 --------------------------------------------------------------
 #p opt freq b3lyp/6-31g(d) geom=connectivity temperature=0.001
 --------------------------------------------------------------

 -------------------
 Title Card Required
 -------------------
 Symbolic Z-matrix:
 Charge =  1 Multiplicity = 1

 SCF Done:  E(RB3LYP) =  -477.456678371     A.U. after   15 cycles
 SCF Done:  E(RB3LYP) =  -477.465390588     A.U. after   13 cycles
 SCF Done:  E(RB3LYP) =  -477.466546611     A.U. after   12 cycles
 SCF Done:  E(RB3LYP) =  -477.466842210     A.U. after   11 cycles
 SCF Done:  E(RB3LYP) =  -477.467130979     A.U. after   12 cycles
 SCF Done:  E(RB3LYP) =  -477.467322685     A.U. after   12 cycles
 SCF Done:  E(RB3LYP) =  -477.467496997     A.U. after   11 cycles
 SCF Done:  E(RB3LYP) =  -477.467546209     A.U. after   11 cycles
 SCF Done:  E(RB3LYP) =  -477.467547422     A.U. after    8 cycles
 Optimization completed.
    -- Stationary point found.
 Normal termination of Gaussian 16 at Mon Oct 14 11:06:43 2019.

 --------------------------------------------------------------------
 #P Geom=AllCheck Guess=TCheck SCRF=Check GenChk RB3LYP/6-31G(d) Freq
 --------------------------------------------------------------------

 Structure from the checkpoint file:  "4_p.chk"
 -------------------
 Title Card Required
 -------------------
 Charge =  1 Multiplicity = 1

                         Standard orientation:
 ---------------------------------------------------------------------
 Center     Atomic      Atomic             Coordinates (Angstroms)
 Number     Number       Type             X           Y           Z
 ---------------------------------------------------------------------
      1          8           0       -1.693455   -2.042796   -0.072910
      2          7           0       -1.303076   -0.714888    0.009965
      3          6           0       -2.277021    0.201715   -0.018353
      4          6           0       -1.955122    1.558231   -0.017254
      5          6           0       -0.622181    1.933586    0.006983
      6          6           0        0.404238    0.962506    0.014395
      7          6           0        0.048062   -0.424513   -0.000821
      8          6           0        1.026673   -1.433883   -0.026978
      9          6           0        2.356358   -1.058042   -0.021921
     10          6           0        2.739255    0.304915    0.008574
     11          6           0        1.784620    1.296197    0.022868
     12          1           0       -3.286808   -0.190032   -0.042692
     13          1           0       -2.756053    2.287670   -0.034674
     14          1           0       -0.352922    2.985877    0.012273
     15          1           0        0.737188   -2.476070   -0.072445
     16          1           0        3.122710   -1.826333   -0.047903
     17          1           0        3.792908    0.563727    0.013254
     18          1           0        2.068261    2.344043    0.036578
     19          1           0       -1.685403   -2.386570    0.844174
 ---------------------------------------------------------------------

 SCF Done:  E(RB3LYP) =  -477.467547422     A.U. after    1 cycles

 The electronic state is 1-A.
 Alpha  occ. eigenvalues --  -19.39751 -14.65944 -10.43947 -10.43024 -10.39768
 Alpha  occ. eigenvalues --  -10.39120 -10.38492 -10.36629 -10.36568 -10.36407
 Alpha  occ. eigenvalues --  -10.35745  -1.31469  -1.12850  -1.03096  -0.99410
 Alpha  occ. eigenvalues --   -0.94759  -0.91932  -0.84144  -0.82995  -0.80145
 Alpha  occ. eigenvalues --   -0.74923  -0.72064  -0.70014  -0.68886  -0.66007
 Alpha  occ. eigenvalues --   -0.63553  -0.61860  -0.60733  -0.58913  -0.58207
 Alpha  occ. eigenvalues --   -0.56706  -0.52883  -0.52210  -0.51857  -0.51170
 Alpha  occ. eigenvalues --   -0.48851  -0.43187  -0.40944
 Alpha virt. eigenvalues --   -0.25291  -0.19537  -0.15755  -0.12524  -0.09157
 Alpha virt. eigenvalues --   -0.07281  -0.04776  -0.03634  -0.01109   0.01193
 Alpha virt. eigenvalues --    0.01257   0.02044   0.03653   0.04664   0.05572

 Mulliken charges:
               1
     1  O   -0.452253
     2  N   -0.277199
     3  C    0.140600
     4  C   -0.195902
     5  C   -0.084075
     6  C    0.097100
     7  C    0.360386
     8  C   -0.137168
     9  C   -0.119657
    10  C   -0.109429
    11  C   -0.179578
    12  H    0.255336
    13  H    0.223786
    14  H    0.217520
    15  H    0.199674
    16  H    0.203565
    17  H    0.200806
    18  H    0.196273
    19  H    0.460215
 Sum of Mulliken charges =   1.00000

 Dipole moment (field-independent basis, Debye):
    X=             -1.5803    Y=              0.4625    Z=              1.5517  Tot=              2.2625
 Quadrupole moment (field-independent basis, Debye-Ang):
   XX=            -32.0012   YY=            -40.4618   ZZ=            -62.1997
   XY=             -1.2605   XZ=             -2.8396   YZ=             -4.1983

  Exact polarizability: 146.633  -8.026 114.382  -0.196  -0.831  35.376
 Approx polarizability: 260.373 -15.635 207.254   0.686  -0.038  55.479

                      1                      2                      3
                      A                      A                      A
 Frequencies --    135.4858               177.5816               244.0778
 Red. masses --      4.1640                 3.6985                 2.7894
 Frc consts  --      0.0450                 0.0687                 0.0979
 IR Inten    --      2.9032                 6.9538                22.4360

                      4                      5                      6
                      A                      A                      A
 Frequencies --    278.2028               301.8742               409.2890
 Red. masses --      1.4598                 3.9685                 3.5075
 Frc consts  --      0.0666                 0.2131                 0.3462
 IR Inten    --     86.0994                 1.2147                 4.7029

                      7                      8                      9
                      A                      A                      A
 Frequencies --    473.1882               478.6932               490.9433
 Red. masses --      3.6515                 3.9469                 7.3701
 Frc consts  --      0.4817                 0.5329                 1.0466
 IR Inten    --      2.1885                 1.9265                 0.1954

                     10                     11                     12
                      A                      A                      A
 Frequencies --    521.0648               543.8875               582.2641
 Red. masses --      3.3826                 6.7961                 7.0846
 Frc consts  --      0.5411                 1.1845                 1.4152
 IR Inten    --      8.5225                 0.5346                 5.2659

                     13                     14                     15
                      A                      A                      A
 Frequencies --    608.7190               729.0728               749.9334
 Red. masses --      3.1896                 5.8841                 2.3824
 Frc consts  --      0.6963                 1.8428                 0.7894
 IR Inten    --      2.8175                 5.5947                 3.6803

                     16                     17                     18
                      A                      A                      A
 Frequencies --    779.2261               815.5070               823.9838
 Red. masses --      1.4336                 5.4565                 1.3706
 Frc consts  --      0.5129                 2.1380                 0.5483
 IR Inten    --     31.5216                 1.5397                69.0336

                     19                     20                     21
                      A                      A                      A
 Frequencies --    885.2046               892.0020               963.6782
 Red. masses --      4.8897                 1.4145                 1.3562
 Frc consts  --      2.2574                 0.6631                 0.7421
 IR Inten    --      0.7448                 1.0001                 0.3386

                     22                     23                     24
                      A                      A                      A
 Frequencies --    988.5152              1017.9320              1031.2704
 Red. masses --      1.3222                 1.3778                 1.3479
 Frc consts  --      0.7612                 0.8412                 0.8446
 IR Inten    --      0.6215                 1.4869                 0.0143

                     25                     26                     27
                      A                      A                      A
 Frequencies --   1049.6731              1066.7322              1121.1738
 Red. masses --      2.8060                 3.3221                 2.0202
 Frc consts  --      1.8216                 2.2273                 1.4962
 IR Inten    --      1.5555                 5.2456                 6.0435

                     28                     29                     30
                      A                      A                      A
 Frequencies --   1184.7404              1200.5456              1201.7981
 Red. masses --      1.2798                 1.2570                 1.4700
 Frc consts  --      1.0584                 1.0674                 1.2509
 IR Inten    --      2.2933                 4.4094                12.0815

                     31                     32                     33
                      A                      A                      A
 Frequencies --   1249.1454              1268.9510              1307.4550
 Red. masses --      2.0109                 2.0049                 1.8136
 Frc consts  --      1.8487                 1.9021                 1.8266
 IR Inten    --     14.3341                17.2503                17.8391

                     34                     35                     36
                      A                      A                      A
 Frequencies --   1369.7461              1412.7620              1418.9353
 Red. masses --      3.4348                 6.6082                 1.3162
 Frc consts  --      3.7969                 7.7709                 1.5614
 IR Inten    --     12.7973                65.7696                70.6242

                     37                     38                     39
                      A                      A                      A
 Frequencies --   1455.5179              1497.4581              1507.3109
 Red. masses --      1.8863                 1.9700                 2.3168
 Frc consts  --      2.3545                 2.6028                 3.1013
 IR Inten    --      3.6728                 0.2378                 9.4429

                     40                     41                     42
                      A                      A                      A
 Frequencies --   1573.9993              1621.3240              1639.2430
 Red. masses --      3.7517                 5.8307                 4.9219
 Frc consts  --      5.4764                 9.0305                 7.7924
 IR Inten    --     57.3223                25.4312                 0.9785

                     43                     44                     45
                      A                      A                      A
 Frequencies --   1672.0614              3215.9597              3221.2864
 Red. masses --      6.2813                 1.0895                 1.0919
 Frc consts  --     10.3467                 6.6388                 6.6759
 IR Inten    --     25.7975                 0.0395                 0.3006

                     46                     47                     48
                      A                      A                      A
 Frequencies --   3223.8068              3235.7099              3250.6879
 Red. masses --      1.0916                 1.0963                 1.0935
 Frc consts  --      6.6844                 6.7626                 6.8080
 IR Inten    --      0.2350                 0.0072                 3.0262

                     49                     50                     51
                      A                      A                      A
 Frequencies --   3254.6661              3265.5140              3632.7795
 Red. masses --      1.0940                 1.0971                 1.0682
 Frc consts  --      6.8276                 6.8929                 8.3055
 IR Inten    --      1.6061                21.2780               104.7562

 - Thermochemistry -
 -------------------
 Temperature     0.001 Kelvin.  Pressure   1.00000 Atm.
 Atom     1 has atomic number  8 and mass  15.99491

 Molecular mass:   146.06059 amu.
 Principal axes and moments of inertia in atomic units:
                           1         2         3
     Eigenvalues --   918.716341583.754222496.53110
           X            0.99985  -0.01723  -0.00278
           Y            0.01721   0.99983  -0.00649
           Z            0.00289   0.00644   0.99998
 This molecule is an asymmetric top.
 Rotational symmetry number  1.
 Warning -- assumption of classical behavior for rotation
           may cause significant error
 Rotational temperatures (Kelvin)      0.09428     0.05469     0.03469
 Rotational constants (GHZ):           1.96442     1.13953     0.72290
 Zero-point vibrational energy     400991.7 (Joules/Mol)
                                   95.83932 (Kcal/Mol)
 Vibrational temperatures:    194.93   255.50   351.17   400.27   434.33
          (Kelvin)            588.88   680.81   688.73   706.36   749.70
                              782.53   837.75   875.81  1048.97  1078.99
                             1121.13  1173.33  1185.53  1273.61  1283.39
                             1386.52  1422.25  1464.58  1483.77  1510.25
                             1534.79  1613.12  1704.58  1727.32  1729.12
                             1797.24  1825.74  1881.14  1970.76  2032.65
                             2041.53  2094.17  2154.51  2168.68  2264.63
                             2332.72  2358.50  2405.72  4627.05  4634.71
                             4638.34  4655.46  4677.01  4682.74  4698.35
                             5226.76

 Zero-point correction=                           0.152730 (Hartree/Particle)
 Thermal correction to Energy=                    0.152730
 Thermal correction to Enthalpy=                  0.152730
 Thermal correction to Gibbs Free Energy=         0.152730
 Sum of electronic and zero-point Energies=           -477.314818
 Sum of electronic and thermal Energies=              -477.314818
 Sum of electronic and thermal Enthalpies=            -477.314818
 Sum of electronic and thermal Free Energies=         -477.314818

                     E (Thermal)             CV                S
                      KCal/Mol        Cal/Mol-Kelvin    Cal/Mol-Kelvin
 Total                   95.839              5.962            -29.675
 Electronic               0.000              0.000              0.000
 Translational            0.000              2.981            -21.776
 Rotational               0.000              2.981             -7.899
 Vibrational             95.839              0.000              0.000

 Optimization completed.
    -- Stationary point found.
 Normal termination of Gaussian 16 at Mon Oct 14 11:07:14 2019.
