 Gaussian 16, Revision A.03,
 Gaussian 16:  ES64L-G16RevA.03 25-Dec-2016

 --------------------------------------------------------------
 #P opt freq b3lyp/6-31g(d) geom=connectivity temperature=0.001
 --------------------------------------------------------------

 -------------------
 Title Card Required
 -------------------
 Symbolic Z-matrix:
 Charge =  0 Multiplicity = 1

 SCF Done:  E(RB3LYP) =  -365.142476429     A.U. after   15 cycles
 SCF Done:  E(RB3LYP) =  -365.164383860     A.U. after   13 cycles
 SCF Done:  E(RB3LYP) =  -365.171930793     A.U. after   13 cycles
 SCF Done:  E(RB3LYP) =  -365.175686432     A.U. after   13 cycles
 SCF Done:  E(RB3LYP) =  -365.176690648     A.U. after   12 cycles
 SCF Done:  E(RB3LYP) =  -365.176768594     A.U. after   11 cycles
 SCF Done:  E(RB3LYP) =  -365.176811270     A.U. after   11 cycles
 SCF Done:  E(RB3LYP) =  -365.176885132     A.U. after   12 cycles
 SCF Done:  E(RB3LYP) =  -365.176949095     A.U. after   13 cycles
 SCF Done:  E(RB3LYP) =  -365.176943723     A.U. after   13 cycles
 SCF Done:  E(RB3LYP) =  -365.158338503     A.U. after   14 cycles
 SCF Done:  E(RB3LYP) =  -365.177138398     A.U. after   12 cycles
 SCF Done:  E(RB3LYP) =  -365.177295497     A.U. after   11 cycles
 SCF Done:  E(RB3LYP) =  -365.177310246     A.U. after   12 cycles
 SCF Done:  E(RB3LYP) =  -365.177314148     A.U. after    9 cycles
 SCF Done:  E(RB3LYP) =  -365.177314383     A.U. after    8 cycles
 Optimization completed.
    -- Stationary point found.
 Normal termination of Gaussian 16 at Mon Oct 14 02:16:43 2019.

 --------------------------------------------------------------------
 #P Geom=AllCheck Guess=TCheck SCRF=Check GenChk RB3LYP/6-31G(d) Freq
 --------------------------------------------------------------------

 Structure from the checkpoint file:  "5.chk"
 -------------------
 Title Card Required
 -------------------
 Charge =  0 Multiplicity = 1

                         Standard orientation:
 ---------------------------------------------------------------------
 Center     Atomic      Atomic             Coordinates (Angstroms)
 Number     Number       Type             X           Y           Z
 ---------------------------------------------------------------------
      1          6           0       -1.059637   -0.671797    1.402231
      2          6           0       -0.509387   -0.451655   -0.012459
      3          6           0       -1.624215   -0.492070   -1.054420
      4          6           0        0.706742   -1.340737   -0.346571
      5          6           0        1.955575   -0.485860   -0.006346
      6          6           0        1.414641    0.907193   -0.024792
      7          7           0        0.106862    0.948071   -0.027301
      8          8           0       -0.654846    1.958145    0.008927
      9          1           0       -1.596847   -1.624871    1.454253
     10          1           0       -0.253830   -0.690088    2.144779
     11          1           0       -1.748977    0.137359    1.659901
     12          1           0       -2.106406   -1.475651   -1.047499
     13          1           0       -2.370630    0.274852   -0.833800
     14          1           0       -1.228745   -0.308385   -2.059273
     15          1           0        0.683399   -2.286060    0.203452
     16          1           0        0.705513   -1.580100   -1.415113
     17          1           0        2.371694   -0.741605    0.980266
     18          1           0        2.765961   -0.634458   -0.730161
     19          1           0        1.967292    1.836902    0.017041
 ---------------------------------------------------------------------

 SCF Done:  E(RB3LYP) =  -365.177314383     A.U. after    1 cycles

 The electronic state is 1-A.
 Alpha  occ. eigenvalues --  -19.10880 -14.45579 -10.23849 -10.21590 -10.20640
 Alpha  occ. eigenvalues --  -10.19996 -10.18398 -10.17930  -1.08898  -0.88937
 Alpha  occ. eigenvalues --   -0.79808  -0.74829  -0.69640  -0.66514  -0.60973
 Alpha  occ. eigenvalues --   -0.53168  -0.49206  -0.49070  -0.46194  -0.44264
 Alpha  occ. eigenvalues --   -0.42844  -0.41457  -0.40879  -0.38721  -0.37971
 Alpha  occ. eigenvalues --   -0.36740  -0.36412  -0.33628  -0.33326  -0.23073
 Alpha  occ. eigenvalues --   -0.20587
 Alpha virt. eigenvalues --   -0.00355   0.07627   0.10902   0.11424   0.12189
 Alpha virt. eigenvalues --    0.14230   0.14799   0.15345   0.16939   0.17671
 Alpha virt. eigenvalues --    0.18520   0.19457   0.20612   0.21024   0.21676

 Mulliken charges:
               1
     1  C   -0.448902
     2  C    0.183044
     3  C   -0.450756
     4  C   -0.309795
     5  C   -0.336339
     6  C    0.051735
     7  N    0.089854
     8  O   -0.518733
     9  H    0.149677
    10  H    0.147786
    11  H    0.180950
    12  H    0.144978
    13  H    0.183572
    14  H    0.149773
    15  H    0.151775
    16  H    0.154978
    17  H    0.156780
    18  H    0.158116
    19  H    0.161508
 Sum of Mulliken charges =  -0.00000

 Dipole moment (field-independent basis, Debye):
    X=              1.6831    Y=             -3.3194    Z=              0.0243  Tot=              3.7218
 Quadrupole moment (field-independent basis, Debye-Ang):
   XX=            -46.1929   YY=            -54.4017   ZZ=            -48.3020
   XY=              3.7163   XZ=             -0.1188   YZ=             -0.0173

  Exact polarizability:  86.099  -3.537  71.064  -0.077  -0.132  57.921
 Approx polarizability: 141.920 -21.222 109.400  -0.661  -0.392  81.210

                      1                      2                      3
                      A                      A                      A
 Frequencies --     88.6292               209.4837               239.3195
 Red. masses --      2.5458                 1.0366                 2.7239
 Frc consts  --      0.0118                 0.0268                 0.0919
 IR Inten    --      1.8821                 0.2135                 0.9204

                      4                      5                      6
                      A                      A                      A
 Frequencies --    254.7081               255.3206               314.6216
 Red. masses --      1.6672                 1.3727                 2.9439
 Frc consts  --      0.0637                 0.0527                 0.1717
 IR Inten    --      1.6216                 1.3028                 5.3058

                      7                      8                      9
                      A                      A                      A
 Frequencies --    347.9244               382.7661               514.7318
 Red. masses --      2.5803                 2.1654                 3.2210
 Frc consts  --      0.1840                 0.1869                 0.5028
 IR Inten    --      4.0691                 0.1365                 6.4210

                     10                     11                     12
                      A                      A                      A
 Frequencies --    586.2719               655.6205               698.0234
 Red. masses --      4.0766                 2.6424                 3.8372
 Frc consts  --      0.8256                 0.6692                 1.1015
 IR Inten    --      7.4909                 7.3223                 6.6629

                     13                     14                     15
                      A                      A                      A
 Frequencies --    717.1550               781.0345               807.6762
 Red. masses --      4.6823                 1.6838                 1.6522
 Frc consts  --      1.4188                 0.6052                 0.6350
 IR Inten    --      3.0108                19.8855                 4.9673

                     16                     17                     18
                      A                      A                      A
 Frequencies --    904.0504               946.8874               957.7089
 Red. masses --      1.9137                 2.6020                 1.6404
 Frc consts  --      0.9215                 1.3745                 0.8865
 IR Inten    --      0.0962                 1.3212                 0.4217

                     19                     20                     21
                      A                      A                      A
 Frequencies --    985.6631              1009.2400              1040.7287
 Red. masses --      1.5737                 1.4917                 1.5145
 Frc consts  --      0.9008                 0.8952                 0.9665
 IR Inten    --      0.5420                 1.0866                 2.0167

                     22                     23                     24
                      A                      A                      A
 Frequencies --   1055.6812              1145.0687              1181.4857
 Red. masses --      1.6100                 1.3206                 1.7187
 Frc consts  --      1.0571                 1.0202                 1.4135
 IR Inten    --      5.1729                 4.3120                10.6518

                     25                     26                     27
                      A                      A                      A
 Frequencies --   1239.0044              1267.4167              1290.0670
 Red. masses --      1.5802                 1.9496                 2.5630
 Frc consts  --      1.4293                 1.8451                 2.5132
 IR Inten    --     10.3279                 1.5169                18.1031

                     28                     29                     30
                      A                      A                      A
 Frequencies --   1316.3739              1339.5793              1359.3614
 Red. masses --      1.8610                 1.9155                 2.4109
 Frc consts  --      1.9001                 2.0252                 2.6248
 IR Inten    --      0.3882                41.4408                56.7840

                     31                     32                     33
                      A                      A                      A
 Frequencies --   1383.4105              1421.9867              1443.5691
 Red. masses --      1.8286                 1.2760                 1.2691
 Frc consts  --      2.0620                 1.5202                 1.5582
 IR Inten    --      1.8104                11.5118                 4.2863

                     34                     35                     36
                      A                      A                      A
 Frequencies --   1504.6712              1518.2055              1521.3624
 Red. masses --      1.0505                 1.0700                 1.0618
 Frc consts  --      1.4013                 1.4532                 1.4480
 IR Inten    --      0.7426                 3.0733                 6.7652

                     37                     38                     39
                      A                      A                      A
 Frequencies --   1527.8757              1535.7717              1543.7074
 Red. masses --      1.0658                 1.0885                 1.0648
 Frc consts  --      1.4658                 1.5126                 1.4950
 IR Inten    --      4.3117                 3.0092                 5.6812

                     40                     41                     42
                      A                      A                      A
 Frequencies --   1669.7271              3011.7627              3054.8830
 Red. masses --      7.9481                 1.0726                 1.0353
 Frc consts  --     13.0558                 5.7324                 5.6927
 IR Inten    --    123.7854                41.4451                21.1929

                     43                     44                     45
                      A                      A                      A
 Frequencies --   3060.1866              3066.2567              3078.5198
 Red. masses --      1.0392                 1.0813                 1.0681
 Frc consts  --      5.7337                 5.9900                 5.9640
 IR Inten    --      5.1697                21.0228                37.7485

                     46                     47                     48
                      A                      A                      A
 Frequencies --   3119.2758              3122.2676              3126.5181
 Red. masses --      1.1052                 1.1032                 1.1026
 Frc consts  --      6.3356                 6.3367                 6.3503
 IR Inten    --      9.9354                23.7055                36.7960

                     49                     50                     51
                      A                      A                      A
 Frequencies --   3144.6916              3155.8764              3257.5901
 Red. masses --      1.1025                 1.1010                 1.0927
 Frc consts  --      6.4235                 6.4606                 6.8319
 IR Inten    --      7.2147                 8.9053                 4.7588

 - Thermochemistry -
 -------------------
 Temperature     0.001 Kelvin.  Pressure   1.00000 Atm.
 Atom     1 has atomic number  6 and mass  12.00000

 Molecular mass:   113.08406 amu.
 Principal axes and moments of inertia in atomic units:
                           1         2         3
     Eigenvalues --   691.10643 802.164471081.97745
           X            0.99587   0.09075   0.00378
           Y           -0.09074   0.99587  -0.00173
           Z           -0.00392   0.00138   0.99999
 This molecule is an asymmetric top.
 Rotational symmetry number  1.
 Warning -- assumption of classical behavior for rotation
           may cause significant error
 Rotational temperatures (Kelvin)      0.12533     0.10798     0.08005
 Rotational constants (GHZ):           2.61138     2.24984     1.66800
 Zero-point vibrational energy     437592.3 (Joules/Mol)
                                  104.58707 (Kcal/Mol)
 Vibrational temperatures:    127.52   301.40   344.33   366.47   367.35
          (Kelvin)            452.67   500.59   550.71   740.58   843.51
                              943.29  1004.30  1031.83  1123.73  1162.07
                             1300.73  1362.36  1377.93  1418.15  1452.07
                             1497.38  1518.89  1647.50  1699.89  1782.65
                             1823.53  1856.12  1893.97  1927.36  1955.82
                             1990.42  2045.92  2076.97  2164.89  2184.36
                             2188.90  2198.27  2209.63  2221.05  2402.36
                             4333.25  4395.30  4402.93  4411.66  4429.30
                             4487.94  4492.25  4498.36  4524.51  4540.60
                             4686.95

 Zero-point correction=                           0.166670 (Hartree/Particle)
 Thermal correction to Energy=                    0.166670
 Thermal correction to Enthalpy=                  0.166670
 Thermal correction to Gibbs Free Energy=         0.166670
 Sum of electronic and zero-point Energies=           -365.010644
 Sum of electronic and thermal Energies=              -365.010644
 Sum of electronic and thermal Enthalpies=            -365.010644
 Sum of electronic and thermal Free Energies=         -365.010644

                     E (Thermal)             CV                S
                      KCal/Mol        Cal/Mol-Kelvin    Cal/Mol-Kelvin
 Total                  104.587              5.962            -32.227
 Electronic               0.000              0.000              0.000
 Translational            0.000              2.981            -22.539
 Rotational               0.000              2.981             -9.688
 Vibrational            104.587              0.000              0.000

 Optimization completed.
    -- Stationary point found.
 Normal termination of Gaussian 16 at Mon Oct 14 02:17:05 2019.
