 Gaussian 16, Revision A.03,
 Gaussian 16:  ES64L-G16RevA.03 25-Dec-2016

 --------------------------------------------------------------
 #P opt freq b3lyp/6-31g(d) geom=connectivity temperature=0.001
 --------------------------------------------------------------

 -------------------
 Title Card Required
 -------------------
 Symbolic Z-matrix:
 Charge =  1 Multiplicity = 1

 SCF Done:  E(RB3LYP) =  -365.505133201     A.U. after   14 cycles
 SCF Done:  E(RB3LYP) =  -365.528863242     A.U. after   12 cycles
 SCF Done:  E(RB3LYP) =  -365.536315445     A.U. after   12 cycles
 SCF Done:  E(RB3LYP) =  -365.540171611     A.U. after   12 cycles
 SCF Done:  E(RB3LYP) =  -365.543038231     A.U. after   13 cycles
 SCF Done:  E(RB3LYP) =  -365.543288533     A.U. after   10 cycles
 SCF Done:  E(RB3LYP) =  -365.543397309     A.U. after   10 cycles
 SCF Done:  E(RB3LYP) =  -365.543495901     A.U. after   11 cycles
 SCF Done:  E(RB3LYP) =  -365.543603241     A.U. after   11 cycles
 SCF Done:  E(RB3LYP) =  -365.543321311     A.U. after   12 cycles
 SCF Done:  E(RB3LYP) =  -365.543915271     A.U. after   10 cycles
 SCF Done:  E(RB3LYP) =  -365.544349978     A.U. after   12 cycles
 SCF Done:  E(RB3LYP) =  -365.544399332     A.U. after   10 cycles
 SCF Done:  E(RB3LYP) =  -365.544427010     A.U. after   10 cycles
 SCF Done:  E(RB3LYP) =  -365.544433582     A.U. after   10 cycles
 SCF Done:  E(RB3LYP) =  -365.544441598     A.U. after    9 cycles
 SCF Done:  E(RB3LYP) =  -365.544443800     A.U. after    8 cycles
 SCF Done:  E(RB3LYP) =  -365.544445223     A.U. after    8 cycles
 SCF Done:  E(RB3LYP) =  -365.544445402     A.U. after    8 cycles
 Optimization completed.
    -- Stationary point found.
 Normal termination of Gaussian 16 at Mon Oct 14 02:19:11 2019.

 --------------------------------------------------------------------
 #P Geom=AllCheck Guess=TCheck SCRF=Check GenChk RB3LYP/6-31G(d) Freq
 --------------------------------------------------------------------

 Structure from the checkpoint file:  "5_p.chk"
 -------------------
 Title Card Required
 -------------------
 Charge =  1 Multiplicity = 1

                         Standard orientation:
 ---------------------------------------------------------------------
 Center     Atomic      Atomic             Coordinates (Angstroms)
 Number     Number       Type             X           Y           Z
 ---------------------------------------------------------------------
      1          6           0       -1.615952   -0.610042    1.050141
      2          6           0       -0.508592   -0.510421   -0.000071
      3          6           0       -1.040006   -0.702438   -1.426428
      4          6           0        0.743587   -1.369696    0.324392
      5          6           0        1.975758   -0.477162    0.014834
      6          6           0        1.415391    0.901366    0.043507
      7          7           0        0.132285    0.874664    0.068179
      8          8           0       -0.594276    2.021505   -0.064611
      9          1           0       -1.976946   -1.642515    1.079948
     10          1           0       -1.255583   -0.354708    2.052197
     11          1           0       -2.483167    0.013234    0.799919
     12          1           0       -1.518217   -1.684158   -1.493752
     13          1           0       -1.785901    0.055857   -1.681468
     14          1           0       -0.235279   -0.662186   -2.167227
     15          1           0        0.743787   -1.642123    1.383549
     16          1           0        0.745342   -2.292003   -0.259180
     17          1           0        2.795041   -0.590106    0.732171
     18          1           0        2.406543   -0.660525   -0.979947
     19          1           0        1.943993    1.849842    0.013755
     20          1           0       -1.372512    1.925054    0.521423
 ---------------------------------------------------------------------

 SCF Done:  E(RB3LYP) =  -365.544445402     A.U. after    1 cycles

 The electronic state is 1-A.
 Alpha  occ. eigenvalues --  -19.41556 -14.66944 -10.46530 -10.43384 -10.38812
 Alpha  occ. eigenvalues --  -10.37004 -10.35354 -10.34473  -1.33415  -1.14331
 Alpha  occ. eigenvalues --   -0.99587  -0.95467  -0.86630  -0.85529  -0.80977
 Alpha  occ. eigenvalues --   -0.80170  -0.72315  -0.69509  -0.65458  -0.64589
 Alpha  occ. eigenvalues --   -0.62685  -0.60591  -0.58811  -0.58467  -0.55554
 Alpha  occ. eigenvalues --   -0.54867  -0.54551  -0.53671  -0.51969  -0.51252
 Alpha  occ. eigenvalues --   -0.47872
 Alpha virt. eigenvalues --   -0.23711  -0.12924  -0.08758  -0.07066  -0.05586
 Alpha virt. eigenvalues --   -0.04421  -0.03431  -0.02797  -0.00661   0.00228
 Alpha virt. eigenvalues --    0.00727   0.01601   0.02521   0.03461   0.04853

 Mulliken charges:
               1
     1  C   -0.500072
     2  C    0.154875
     3  C   -0.449711
     4  C   -0.323941
     5  C   -0.379928
     6  C    0.188472
     7  N   -0.044287
     8  O   -0.445535
     9  H    0.222232
    10  H    0.189772
    11  H    0.178620
    12  H    0.207249
    13  H    0.192285
    14  H    0.181329
    15  H    0.204686
    16  H    0.215317
    17  H    0.238421
    18  H    0.237449
    19  H    0.266444
    20  H    0.466323
 Sum of Mulliken charges =   1.00000

 Dipole moment (field-independent basis, Debye):
    X=              1.0703    Y=              0.2885    Z=              0.9694  Tot=              1.4726
 Quadrupole moment (field-independent basis, Debye-Ang):
   XX=            -31.5142   YY=            -39.3783   ZZ=            -43.5454
   XY=              0.1098   XZ=             -1.5727   YZ=              2.1357

  Exact polarizability:  81.945  -2.077  67.581  -0.687  -0.053  56.554
 Approx polarizability: 120.146  -7.407  97.593  -0.993  -0.300  79.445

                      1                      2                      3
                      A                      A                      A
 Frequencies --     98.1049               213.0539               238.5273
 Red. masses --      2.4151                 2.0562                 1.2137
 Frc consts  --      0.0137                 0.0550                 0.0407
 IR Inten    --      0.4345                10.6232                 2.9739

                      4                      5                      6
                      A                      A                      A
 Frequencies --    260.0024               272.5041               284.3619
 Red. masses --      1.3682                 1.5307                 2.2564
 Frc consts  --      0.0545                 0.0670                 0.1075
 IR Inten    --     26.6014                 3.2329                16.3630

                      7                      8                      9
                      A                      A                      A
 Frequencies --    291.6327               339.9150               367.5583
 Red. masses --      1.2693                 2.3708                 2.1362
 Frc consts  --      0.0636                 0.1614                 0.1700
 IR Inten    --     99.1791                 0.4532                 7.2085

                     10                     11                     12
                      A                      A                      A
 Frequencies --    477.9932               568.9666               577.9031
 Red. masses --      2.7818                 4.0597                 3.8218
 Frc consts  --      0.3745                 0.7743                 0.7520
 IR Inten    --      7.8123                 1.9933                13.7032

                     13                     14                     15
                      A                      A                      A
 Frequencies --    679.0851               694.8638               772.6117
 Red. masses --      4.4323                 3.3713                 1.7266
 Frc consts  --      1.2043                 0.9591                 0.6073
 IR Inten    --      9.0980                 2.1940                 5.1034

                     16                     17                     18
                      A                      A                      A
 Frequencies --    878.1553               917.8595               933.9428
 Red. masses --      1.8790                 1.4243                 2.6299
 Frc consts  --      0.8537                 0.7070                 1.3516
 IR Inten    --      9.8190                 2.2992                 1.3859

                     19                     20                     21
                      A                      A                      A
 Frequencies --    954.0282               976.4918              1012.5143
 Red. masses --      1.5699                 1.7246                 1.4157
 Frc consts  --      0.8418                 0.9689                 0.8551
 IR Inten    --      1.9407                 6.6196                 2.8721

                     22                     23                     24
                      A                      A                      A
 Frequencies --   1031.9402              1047.8960              1147.4577
 Red. masses --      1.6539                 1.6001                 2.0494
 Frc consts  --      1.0377                 1.0353                 1.5898
 IR Inten    --      5.2422                 1.8596                29.2219

                     25                     26                     27
                      A                      A                      A
 Frequencies --   1159.5890              1189.8979              1242.1055
 Red. masses --      1.9681                 2.8064                 1.4413
 Frc consts  --      1.5592                 2.3411                 1.3101
 IR Inten    --     30.9257                38.3356                 1.2612

                     28                     29                     30
                      A                      A                      A
 Frequencies --   1263.0181              1292.1208              1306.8151
 Red. masses --      2.1408                 2.0061                 1.3900
 Frc consts  --      2.0121                 1.9733                 1.3986
 IR Inten    --      1.2503                 5.0651                31.0242

                     31                     32                     33
                      A                      A                      A
 Frequencies --   1349.9548              1370.4219              1432.9065
 Red. masses --      1.5672                 1.4234                 1.2764
 Frc consts  --      1.6827                 1.5750                 1.5441
 IR Inten    --     11.6346                24.2542                20.8788

                     34                     35                     36
                      A                      A                      A
 Frequencies --   1445.7016              1456.9193              1483.5090
 Red. masses --      1.4052                 1.2233                 1.0790
 Frc consts  --      1.7304                 1.5299                 1.3991
 IR Inten    --     49.5327                 2.8487                28.5545

                     37                     38                     39
                      A                      A                      A
 Frequencies --   1506.6230              1512.5020              1525.5007
 Red. masses --      1.0485                 1.0510                 1.0728
 Frc consts  --      1.4023                 1.4166                 1.4710
 IR Inten    --      2.4225                 4.2239                18.9036

                     40                     41                     42
                      A                      A                      A
 Frequencies --   1531.1932              1536.4692              1745.1020
 Red. masses --      1.0592                 1.0580                 6.0209
 Frc consts  --      1.4632                 1.4715                10.8033
 IR Inten    --      9.3165                13.5079                 8.6950

                     43                     44                     45
                      A                      A                      A
 Frequencies --   3054.8375              3055.3052              3071.6975
 Red. masses --      1.0702                 1.0390                 1.0356
 Frc consts  --      5.8842                 5.7146                 5.7568
 IR Inten    --      3.1562                 5.6071                 2.4494

                     46                     47                     48
                      A                      A                      A
 Frequencies --   3101.7272              3119.9279              3125.7194
 Red. masses --      1.0663                 1.0926                 1.1009
 Frc consts  --      6.0444                 6.2662                 6.3374
 IR Inten    --      3.7963                 0.6141                 7.1076

                     49                     50                     51
                      A                      A                      A
 Frequencies --   3146.1947              3147.6932              3153.4649
 Red. masses --      1.1028                 1.1039                 1.1035
 Frc consts  --      6.4317                 6.4440                 6.4657
 IR Inten    --      5.0070                 4.6700                 2.6528

                     52                     53                     54
                      A                      A                      A
 Frequencies --   3161.0347              3244.0272              3650.1202
 Red. masses --      1.1046                 1.0979                 1.0673
 Frc consts  --      6.5027                 6.8071                 8.3783
 IR Inten    --      0.9785                13.8802               117.0399

 - Thermochemistry -
 -------------------
 Temperature     0.001 Kelvin.  Pressure   1.00000 Atm.
 Atom     1 has atomic number  6 and mass  12.00000

 Molecular mass:   114.09189 amu.
 Principal axes and moments of inertia in atomic units:
                           1         2         3
     Eigenvalues --   732.48661 812.283291125.34353
           X            0.99862   0.05162  -0.00966
           Y           -0.05152   0.99862   0.01041
           Z            0.01018  -0.00990   0.99990
 This molecule is an asymmetric top.
 Rotational symmetry number  1.
 Warning -- assumption of classical behavior for rotation
           may cause significant error
 Rotational temperatures (Kelvin)      0.11825     0.10663     0.07697
 Rotational constants (GHZ):           2.46386     2.22181     1.60372
 Zero-point vibrational energy     469052.6 (Joules/Mol)
                                  112.10626 (Kcal/Mol)
 Vibrational temperatures:    141.15   306.54   343.19   374.09   392.07
          (Kelvin)            409.13   419.59   489.06   528.83   687.73
                              818.62   831.47   977.05   999.75  1111.62
                             1263.47  1320.60  1343.74  1372.63  1404.95
                             1456.78  1484.73  1507.69  1650.94  1668.39
                             1712.00  1787.11  1817.20  1859.07  1880.22
                             1942.28  1971.73  2061.63  2080.04  2096.18
                             2134.44  2167.69  2176.15  2194.86  2203.05
                             2210.64  2510.81  4395.23  4395.90  4419.49
                             4462.69  4488.88  4497.21  4526.67  4528.83
                             4537.13  4548.02  4667.43  5251.71

 Zero-point correction=                           0.178653 (Hartree/Particle)
 Thermal correction to Energy=                    0.178653
 Thermal correction to Enthalpy=                  0.178653
 Thermal correction to Gibbs Free Energy=         0.178653
 Sum of electronic and zero-point Energies=           -365.365793
 Sum of electronic and thermal Energies=              -365.365793
 Sum of electronic and thermal Enthalpies=            -365.365793
 Sum of electronic and thermal Free Energies=         -365.365793

                     E (Thermal)             CV                S
                      KCal/Mol        Cal/Mol-Kelvin    Cal/Mol-Kelvin
 Total                  112.106              5.962            -32.092
 Electronic               0.000              0.000              0.000
 Translational            0.000              2.981            -22.513
 Rotational               0.000              2.981             -9.579
 Vibrational            112.106              0.000              0.000

 Optimization completed.
    -- Stationary point found.
 Normal termination of Gaussian 16 at Mon Oct 14 02:19:35 2019.
