 Gaussian 16, Revision A.03,
 Gaussian 16:  ES64L-G16RevA.03 25-Dec-2016

 --------------------------------------------------------------
 #P opt freq b3lyp/6-31g(d) geom=connectivity temperature=0.001
 --------------------------------------------------------------

 -------------------
 Title Card Required
 -------------------
 Symbolic Z-matrix:
 Charge =  0 Multiplicity = 2

 SCF Done:  E(UB3LYP) =  -483.676717080     A.U. after   17 cycles
 SCF Done:  E(UB3LYP) =  -483.696616430     A.U. after   14 cycles
 SCF Done:  E(UB3LYP) =  -483.703156518     A.U. after   14 cycles
 SCF Done:  E(UB3LYP) =  -483.704999031     A.U. after   13 cycles
 SCF Done:  E(UB3LYP) =  -483.707903604     A.U. after   15 cycles
 SCF Done:  E(UB3LYP) =  -483.710404031     A.U. after   13 cycles
 SCF Done:  E(UB3LYP) =  -483.711689881     A.U. after   15 cycles
 SCF Done:  E(UB3LYP) =  -483.712552081     A.U. after   14 cycles
 SCF Done:  E(UB3LYP) =  -483.715850211     A.U. after   16 cycles
 SCF Done:  E(UB3LYP) =  -483.690123148     A.U. after   15 cycles
 SCF Done:  E(UB3LYP) =  -483.719329650     A.U. after   13 cycles
 SCF Done:  E(UB3LYP) =  -483.719436787     A.U. after   14 cycles
 SCF Done:  E(UB3LYP) =  -483.719730441     A.U. after   13 cycles
 SCF Done:  E(UB3LYP) =  -483.719806958     A.U. after   12 cycles
 SCF Done:  E(UB3LYP) =  -483.719811893     A.U. after    9 cycles
 SCF Done:  E(UB3LYP) =  -483.719813001     A.U. after    8 cycles
 SCF Done:  E(UB3LYP) =  -483.719813926     A.U. after    8 cycles
 SCF Done:  E(UB3LYP) =  -483.719814513     A.U. after    8 cycles
 SCF Done:  E(UB3LYP) =  -483.719814633     A.U. after    7 cycles
 Optimization completed.
    -- Stationary point found.
 Normal termination of Gaussian 16 at Mon Oct 14 02:23:14 2019.

 --------------------------------------------------------------------
 #P Geom=AllCheck Guess=TCheck SCRF=Check GenChk UB3LYP/6-31G(d) Freq
 --------------------------------------------------------------------

 Structure from the checkpoint file:  "6.chk"
 -------------------
 Title Card Required
 -------------------
 Charge =  0 Multiplicity = 2

                         Standard orientation:
 ---------------------------------------------------------------------
 Center     Atomic      Atomic             Coordinates (Angstroms)
 Number     Number       Type             X           Y           Z
 ---------------------------------------------------------------------
      1          6           0       -1.767157   -0.183655    1.447655
      2          6           0       -1.332237   -0.069173   -0.028980
      3          6           0       -2.338246   -0.824708   -0.912973
      4          6           0       -1.246680    1.402151   -0.483588
      5          6           0        0.000021    2.128892    0.024137
      6          6           0        1.246743    1.402167   -0.483547
      7          6           0        1.332250   -0.069177   -0.028942
      8          6           0        1.767103   -0.183696    1.447675
      9          6           0        2.338208   -0.824731   -0.912992
     10          7           0        0.000010   -0.743400   -0.202249
     11          8           0        0.000025   -2.019563   -0.047131
     12          1           0       -2.806971    0.144384    1.558890
     13          1           0       -1.693276   -1.226148    1.769593
     14          1           0       -1.149516    0.427805    2.112549
     15          1           0       -2.426428   -1.865607   -0.596771
     16          1           0       -3.321123   -0.345210   -0.844036
     17          1           0       -2.018801   -0.809920   -1.960479
     18          1           0       -1.244009    1.432797   -1.581929
     19          1           0       -2.161412    1.913126   -0.158574
     20          1           0        0.000012    3.164716   -0.336559
     21          1           0        0.000011    2.184899    1.120072
     22          1           0        1.244110    1.432842   -1.581881
     23          1           0        2.161460    1.913119   -0.158463
     24          1           0        1.693152   -1.226176    1.769635
     25          1           0        2.806922    0.144302    1.558963
     26          1           0        1.149439    0.427794    2.112526
     27          1           0        2.426330   -1.865659   -0.596847
     28          1           0        2.018672   -0.809864   -1.960472
     29          1           0        3.321128   -0.345313   -0.844086
 ---------------------------------------------------------------------

 SCF Done:  E(UB3LYP) =  -483.719814633     A.U. after    1 cycles

 The electronic state is 2-A.
 Alpha  occ. eigenvalues --  -19.13616 -14.41012 -10.23094 -10.23093 -10.18923
 Alpha  occ. eigenvalues --  -10.18812 -10.18809 -10.17577 -10.17576 -10.17043
 Alpha  occ. eigenvalues --  -10.17043  -1.07836  -0.86050  -0.81423  -0.76675
 Alpha  occ. eigenvalues --   -0.71242  -0.69141  -0.68406  -0.67991  -0.60347
 Alpha  occ. eigenvalues --   -0.59099  -0.51444  -0.48097  -0.47787  -0.46453
 Alpha  occ. eigenvalues --   -0.45783  -0.43977  -0.42485  -0.42210  -0.40430
 Alpha  occ. eigenvalues --   -0.40105  -0.38749  -0.38747  -0.37011  -0.36697
 Alpha  occ. eigenvalues --   -0.36613  -0.35179  -0.35045  -0.33250  -0.32478
 Alpha  occ. eigenvalues --   -0.32096  -0.31031  -0.24313  -0.18334
 Alpha virt. eigenvalues --    0.07103   0.09950   0.10686   0.10886   0.11802
 Alpha virt. eigenvalues --    0.14320   0.14636   0.15452   0.16418   0.16818
 Alpha virt. eigenvalues --    0.17271   0.17409   0.18355   0.19739   0.20004

  Beta  occ. eigenvalues --  -19.12215 -14.39950 -10.23128 -10.23127 -10.18924
  Beta  occ. eigenvalues --  -10.18809 -10.18806 -10.17524 -10.17523 -10.17022
  Beta  occ. eigenvalues --  -10.17022  -1.05354  -0.85227  -0.81322  -0.76151
  Beta  occ. eigenvalues --   -0.69841  -0.68988  -0.68316  -0.67966  -0.60138
  Beta  occ. eigenvalues --   -0.58811  -0.50903  -0.47595  -0.47547  -0.45919
  Beta  occ. eigenvalues --   -0.43933  -0.43725  -0.42445  -0.41801  -0.40007
  Beta  occ. eigenvalues --   -0.39539  -0.38675  -0.38470  -0.36632  -0.36433
  Beta  occ. eigenvalues --   -0.36236  -0.35155  -0.33560  -0.33128  -0.32371
  Beta  occ. eigenvalues --   -0.30930  -0.29197  -0.23069
  Beta virt. eigenvalues --   -0.04077   0.07161   0.10059   0.10882   0.10910
  Beta virt. eigenvalues --    0.11972   0.14409   0.14771   0.15736   0.16444
  Beta virt. eigenvalues --    0.17121   0.17308   0.17472   0.18393   0.19765

 Mulliken charges and spin densities:
               1          2
     1  C   -0.452973   0.029723
     2  C    0.205143  -0.018370
     3  C   -0.442746   0.008499
     4  C   -0.274283   0.001817
     5  C   -0.281668  -0.000450
     6  C   -0.274282   0.001817
     7  C    0.205137  -0.018368
     8  C   -0.452971   0.029718
     9  C   -0.442744   0.008500
    10  N   -0.048736   0.444211
    11  O   -0.402315   0.517589
    12  H    0.142316   0.002051
    13  H    0.172421  -0.001632
    14  H    0.143774  -0.001071
    15  H    0.175573  -0.001031
    16  H    0.136212  -0.001298
    17  H    0.145409   0.000682
    18  H    0.137452   0.000456
    19  H    0.138519  -0.000772
    20  H    0.140267   0.000315
    21  H    0.138821   0.000228
    22  H    0.137454   0.000456
    23  H    0.138521  -0.000772
    24  H    0.172424  -0.001631
    25  H    0.142317   0.002051
    26  H    0.143771  -0.001071
    27  H    0.175575  -0.001031
    28  H    0.145406   0.000683
    29  H    0.136209  -0.001298
 Sum of Mulliken charges =  -0.00000   1.00000

 Dipole moment (field-independent basis, Debye):
    X=             -0.0001    Y=              2.8906    Z=              0.1565  Tot=              2.8949
 Quadrupole moment (field-independent basis, Debye-Ang):
   XX=            -66.1217   YY=            -74.7684   ZZ=            -68.8558
   XY=              0.0001   XZ=              0.0002   YZ=             -0.5502

  Exact polarizability: 111.042  -0.000 102.231  -0.000  -0.193  91.308
 Approx polarizability: 143.521  -0.001 152.485   0.000  -0.607 133.527

                      1                      2                      3
                      A                      A                      A
 Frequencies --     79.8975               119.9137               197.6349
 Red. masses --      4.2397                 2.4469                 2.4027
 Frc consts  --      0.0159                 0.0207                 0.0553
 IR Inten    --      2.5612                 0.0423                 1.0816

                      4                      5                      6
                      A                      A                      A
 Frequencies --    212.3308               235.5383               252.6305
 Red. masses --      1.0363                 1.2166                 1.0850
 Frc consts  --      0.0275                 0.0398                 0.0408
 IR Inten    --      0.0007                 0.9140                 0.0843

                      7                      8                      9
                      A                      A                      A
 Frequencies --    265.1236               285.3389               290.5674
 Red. masses --      1.2748                 2.0882                 1.9984
 Frc consts  --      0.0528                 0.1002                 0.0994
 IR Inten    --      0.3742                 0.0011                 0.0565

                     10                     11                     12
                      A                      A                      A
 Frequencies --    307.8613               312.5753               332.0571
 Red. masses --      2.7647                 2.0411                 2.7785
 Frc consts  --      0.1544                 0.1175                 0.1805
 IR Inten    --      0.8965                 0.0436                 1.2343

                     13                     14                     15
                      A                      A                      A
 Frequencies --    383.2905               405.2407               407.6523
 Red. masses --      3.5147                 1.8221                 2.5089
 Frc consts  --      0.3042                 0.1763                 0.2456
 IR Inten    --     10.6936                 0.7316                 1.5739

                     16                     17                     18
                      A                      A                      A
 Frequencies --    452.3501               472.2574               532.5999
 Red. masses --      3.2209                 3.1497                 3.2667
 Frc consts  --      0.3883                 0.4139                 0.5460
 IR Inten    --      0.6035                 1.3976                 8.8253

                     19                     20                     21
                      A                      A                      A
 Frequencies --    552.3940               576.5182               633.6930
 Red. masses --      4.2096                 2.1650                 3.2825
 Frc consts  --      0.7568                 0.4240                 0.7766
 IR Inten    --      6.8459                 0.2508                 2.3102

                     22                     23                     24
                      A                      A                      A
 Frequencies --    791.1788               798.3313               874.5831
 Red. masses --      2.7185                 2.3032                 1.5203
 Frc consts  --      1.0026                 0.8649                 0.6852
 IR Inten    --      0.1654                 2.1706                 0.9769

                     25                     26                     27
                      A                      A                      A
 Frequencies --    887.5697               931.4193               945.2466
 Red. masses --      2.4078                 2.0834                 1.7178
 Frc consts  --      1.1176                 1.0649                 0.9043
 IR Inten    --      0.0049                 0.0282                 1.0516

                     28                     29                     30
                      A                      A                      A
 Frequencies --    948.9521               978.4282               990.2758
 Red. masses --      1.5090                 1.6844                 1.6225
 Frc consts  --      0.8006                 0.9501                 0.9374
 IR Inten    --      0.9335                 2.7989                 5.7983

                     31                     32                     33
                      A                      A                      A
 Frequencies --   1021.2277              1023.0467              1061.0832
 Red. masses --      1.4350                 1.3106                 2.5731
 Frc consts  --      0.8817                 0.8082                 1.7069
 IR Inten    --      1.0355                 0.1871                 0.1224

                     34                     35                     36
                      A                      A                      A
 Frequencies --   1073.2090              1077.2594              1118.0275
 Red. masses --      1.5792                 1.7473                 1.4634
 Frc consts  --      1.0716                 1.1947                 1.0777
 IR Inten    --      0.8643                 1.3927                 2.2835

                     37                     38                     39
                      A                      A                      A
 Frequencies --   1159.3415              1212.9909              1229.2095
 Red. masses --      1.9341                 2.2038                 3.1477
 Frc consts  --      1.5316                 1.9105                 2.8022
 IR Inten    --     23.9669                 3.7340                 7.9892

                     40                     41                     42
                      A                      A                      A
 Frequencies --   1250.2622              1269.4640              1281.9015
 Red. masses --      2.0501                 1.7726                 2.7786
 Frc consts  --      1.8881                 1.6831                 2.6902
 IR Inten    --      1.3705                 1.9235                24.3477

                     43                     44                     45
                      A                      A                      A
 Frequencies --   1293.6680              1336.1636              1388.1004
 Red. masses --      1.9409                 1.2925                 1.4551
 Frc consts  --      1.9139                 1.3596                 1.6519
 IR Inten    --     16.6009                 1.9268                 0.1671

                     46                     47                     48
                      A                      A                      A
 Frequencies --   1394.0986              1405.8102              1410.5049
 Red. masses --      2.3673                 1.4198                 2.2063
 Frc consts  --      2.7108                 1.6533                 2.5862
 IR Inten    --      4.7327                 1.0690                 1.6626

                     49                     50                     51
                      A                      A                      A
 Frequencies --   1415.1924              1419.8139              1437.2284
 Red. masses --      1.2452                 1.3225                 1.2213
 Frc consts  --      1.4693                 1.5708                 1.4864
 IR Inten    --      0.0005                16.8025                13.0222

                     52                     53                     54
                      A                      A                      A
 Frequencies --   1446.2927              1501.0332              1506.5930
 Red. masses --      1.3986                 1.0596                 1.0565
 Frc consts  --      1.7237                 1.4066                 1.4129
 IR Inten    --      2.9317                 1.2780                 0.3038

                     55                     56                     57
                      A                      A                      A
 Frequencies --   1512.4529              1518.0272              1520.9863
 Red. masses --      1.0716                 1.0675                 1.0527
 Frc consts  --      1.4442                 1.4493                 1.4349
 IR Inten    --      0.2678                 2.8763                 0.0397

                     58                     59                     60
                      A                      A                      A
 Frequencies --   1523.8996              1527.8403              1530.6395
 Red. masses --      1.0617                 1.0526                 1.0883
 Frc consts  --      1.4527                 1.4476                 1.5022
 IR Inten    --      2.6780                 7.3515                 1.2522

                     61                     62                     63
                      A                      A                      A
 Frequencies --   1535.6831              1539.7424              1547.7953
 Red. masses --      1.0689                 1.0521                 1.0573
 Frc consts  --      1.4853                 1.4696                 1.4923
 IR Inten    --     14.4342                 8.4088                 1.7790

                     64                     65                     66
                      A                      A                      A
 Frequencies --   3033.2531              3035.4732              3048.1555
 Red. masses --      1.0630                 1.0642                 1.0614
 Frc consts  --      5.7625                 5.7771                 5.8106
 IR Inten    --     11.6194                25.4824                12.2586

                     67                     68                     69
                      A                      A                      A
 Frequencies --   3055.6512              3057.3519              3061.1842
 Red. masses --      1.0362                 1.0383                 1.0383
 Frc consts  --      5.7002                 5.7183                 5.7324
 IR Inten    --      0.0409                41.3789                34.5241

                     70                     71                     72
                      A                      A                      A
 Frequencies --   3063.0504              3077.8059              3078.3502
 Red. masses --      1.0394                 1.0999                 1.0946
 Frc consts  --      5.7459                 6.1390                 6.1112
 IR Inten    --      1.0539                34.2926                38.1276

                     73                     74                     75
                      A                      A                      A
 Frequencies --   3089.0206              3120.2441              3123.6426
 Red. masses --      1.1041                 1.1021                 1.1020
 Frc consts  --      6.2075                 6.3220                 6.3351
 IR Inten    --     50.3096                13.3789                39.3469

                     76                     77                     78
                      A                      A                      A
 Frequencies --   3124.8957              3128.9093              3144.2205
 Red. masses --      1.1022                 1.0995                 1.1026
 Frc consts  --      6.3414                 6.3420                 6.4221
 IR Inten    --     74.9902                 2.2800                 0.0924

                     79                     80                     81
                      A                      A                      A
 Frequencies --   3147.6946              3163.6998              3164.0597
 Red. masses --      1.1029                 1.0999                 1.0998
 Frc consts  --      6.4382                 6.4864                 6.4874
 IR Inten    --     24.0250                 0.1096                22.5407

 - Thermochemistry -
 -------------------
 Temperature     0.001 Kelvin.  Pressure   1.00000 Atm.
 Atom     1 has atomic number  6 and mass  12.00000

 Molecular mass:   156.13884 amu.
 Principal axes and moments of inertia in atomic units:
                           1         2         3
     Eigenvalues --  1225.645581708.227482125.96925
           X            1.00000   0.00000  -0.00000
           Y           -0.00000   1.00000   0.00158
           Z            0.00000  -0.00158   1.00000
 This molecule is an asymmetric top.
 Rotational symmetry number  1.
 Warning -- assumption of classical behavior for rotation
           may cause significant error
 Rotational temperatures (Kelvin)      0.07067     0.05070     0.04074
 Rotational constants (GHZ):           1.47248     1.05650     0.84890
 Zero-point vibrational energy     691792.7 (Joules/Mol)
                                  165.34241 (Kcal/Mol)
 Vibrational temperatures:    114.95   172.53   284.35   305.50   338.89
          (Kelvin)            363.48   381.45   410.54   418.06   442.94
                              449.73   477.76   551.47   583.05   586.52
                              650.83   679.47   766.29   794.77   829.48
                              911.74  1138.33  1148.62  1258.33  1277.01
                             1340.10  1360.00  1365.33  1407.74  1424.79
                             1469.32  1471.94  1526.66  1544.11  1549.94
                             1608.59  1668.03  1745.22  1768.56  1798.85
                             1826.48  1844.37  1861.30  1922.44  1997.17
                             2005.80  2022.65  2029.40  2036.15  2042.80
                             2067.85  2080.89  2159.65  2167.65  2176.08
                             2184.10  2188.36  2192.55  2198.22  2202.25
                             2209.51  2215.35  2226.93  4364.17  4367.37
                             4385.62  4396.40  4398.85  4404.36  4407.05
                             4428.28  4429.06  4444.41  4489.34  4494.22
                             4496.03  4501.80  4523.83  4528.83  4551.86
                             4552.38

 Zero-point correction=                           0.263490 (Hartree/Particle)
 Thermal correction to Energy=                    0.263490
 Thermal correction to Enthalpy=                  0.263490
 Thermal correction to Gibbs Free Energy=         0.263490
 Sum of electronic and zero-point Energies=           -483.456325
 Sum of electronic and thermal Energies=              -483.456325
 Sum of electronic and thermal Enthalpies=            -483.456325
 Sum of electronic and thermal Free Energies=         -483.456325

                     E (Thermal)             CV                S
                      KCal/Mol        Cal/Mol-Kelvin    Cal/Mol-Kelvin
 Total                  165.342              5.962            -27.897
 Electronic               0.000              0.000              1.377
 Translational            0.000              2.981            -21.577
 Rotational               0.000              2.981             -7.697
 Vibrational            165.342              0.000              0.000

 Optimization completed.
    -- Stationary point found.
 Normal termination of Gaussian 16 at Mon Oct 14 02:24:51 2019.
