 Gaussian 16, Revision A.03,
 Gaussian 16:  ES64L-G16RevA.03 25-Dec-2016

 --------------------------------------------------------------
 #p opt freq b3lyp/6-31g(d) geom=connectivity temperature=0.001
 --------------------------------------------------------------

 -------------------
 Title Card Required
 -------------------
 Symbolic Z-matrix:
 Charge =  1 Multiplicity = 2

 SCF Done:  E(UB3LYP) =  -484.016999219     A.U. after   16 cycles
 SCF Done:  E(UB3LYP) =  -484.037388120     A.U. after   13 cycles
 SCF Done:  E(UB3LYP) =  -484.043768870     A.U. after   13 cycles
 SCF Done:  E(UB3LYP) =  -484.046924401     A.U. after   13 cycles
 SCF Done:  E(UB3LYP) =  -484.049627798     A.U. after   13 cycles
 SCF Done:  E(UB3LYP) =  -484.053537171     A.U. after   14 cycles
 SCF Done:  E(UB3LYP) =  -484.058447073     A.U. after   15 cycles
 SCF Done:  E(UB3LYP) =  -484.062552006     A.U. after   14 cycles
 SCF Done:  E(UB3LYP) =  -484.064721156     A.U. after   13 cycles
 SCF Done:  E(UB3LYP) =  -484.066083080     A.U. after   13 cycles
 SCF Done:  E(UB3LYP) =  -484.071432808     A.U. after   13 cycles
 SCF Done:  E(UB3LYP) =  -484.071623101     A.U. after   13 cycles
 SCF Done:  E(UB3LYP) =  -484.071996214     A.U. after   13 cycles
 SCF Done:  E(UB3LYP) =  -484.072062968     A.U. after   11 cycles
 SCF Done:  E(UB3LYP) =  -484.072076425     A.U. after   10 cycles
 SCF Done:  E(UB3LYP) =  -484.072081721     A.U. after    9 cycles
 SCF Done:  E(UB3LYP) =  -484.072084043     A.U. after    9 cycles
 SCF Done:  E(UB3LYP) =  -484.072084853     A.U. after    8 cycles
 SCF Done:  E(UB3LYP) =  -484.072085012     A.U. after    8 cycles
 Optimization completed.
    -- Stationary point found.
 Normal termination of Gaussian 16 at Mon Oct 14 02:24:54 2019.

 --------------------------------------------------------------------
 #P Geom=AllCheck Guess=TCheck SCRF=Check GenChk UB3LYP/6-31G(d) Freq
 --------------------------------------------------------------------

 Structure from the checkpoint file:  "6_p.chk"
 -------------------
 Title Card Required
 -------------------
 Charge =  1 Multiplicity = 2

                         Standard orientation:
 ---------------------------------------------------------------------
 Center     Atomic      Atomic             Coordinates (Angstroms)
 Number     Number       Type             X           Y           Z
 ---------------------------------------------------------------------
      1          6           0       -1.781790   -0.135892    1.471352
      2          6           0       -1.364575   -0.053047   -0.017907
      3          6           0       -2.349398   -0.853301   -0.890032
      4          6           0       -1.265023    1.405800   -0.517441
      5          6           0       -0.016542    2.149645   -0.039518
      6          6           0        1.238877    1.421863   -0.524921
      7          6           0        1.354671   -0.030883   -0.013080
      8          6           0        1.765909   -0.093021    1.478295
      9          6           0        2.361162   -0.816817   -0.877963
     10          7           0       -0.001622   -0.677852   -0.148353
     11          8           0       -0.057040   -2.013515   -0.075744
     12          1           0       -2.816161    0.212518    1.546338
     13          1           0       -1.741719   -1.166104    1.834771
     14          1           0       -1.165184    0.495189    2.115271
     15          1           0       -2.525908   -1.858058   -0.501354
     16          1           0       -3.302118   -0.315816   -0.891829
     17          1           0       -1.999607   -0.925485   -1.924135
     18          1           0       -1.283928    1.402430   -1.614402
     19          1           0       -2.176607    1.915561   -0.189657
     20          1           0       -0.021960    3.164974   -0.448144
     21          1           0       -0.013041    2.260484    1.051130
     22          1           0        1.248240    1.410109   -1.622013
     23          1           0        2.147492    1.943570   -0.206809
     24          1           0        1.726790   -1.115275    1.867540
     25          1           0        2.798547    0.259960    1.558167
     26          1           0        1.139667    0.542028    2.107311
     27          1           0        2.644385   -1.790918   -0.454603
     28          1           0        2.004494   -0.950733   -1.903817
     29          1           0        3.288459   -0.238674   -0.920130
     30          1           0        0.856079   -2.358762   -0.171911
 ---------------------------------------------------------------------

 SCF Done:  E(UB3LYP) =  -484.072085012     A.U. after    1 cycles

 The electronic state is 2-A.
 Alpha  occ. eigenvalues --  -19.43606 -14.66070 -10.42734 -10.41391 -10.35475
 Alpha  occ. eigenvalues --  -10.34628 -10.34604 -10.33918 -10.33393 -10.33307
 Alpha  occ. eigenvalues --  -10.32654  -1.35179  -1.08882  -0.99772  -0.95224
 Alpha  occ. eigenvalues --   -0.90502  -0.86613  -0.84552  -0.84183  -0.81311
 Alpha  occ. eigenvalues --   -0.77565  -0.74505  -0.69050  -0.67184  -0.65615
 Alpha  occ. eigenvalues --   -0.62807  -0.61413  -0.59631  -0.58971  -0.58418
 Alpha  occ. eigenvalues --   -0.57910  -0.57015  -0.55590  -0.54918  -0.53625
 Alpha  occ. eigenvalues --   -0.53508  -0.52935  -0.52119  -0.51016  -0.50015
 Alpha  occ. eigenvalues --   -0.48489  -0.48357  -0.47377  -0.43302
 Alpha virt. eigenvalues --   -0.12316  -0.08470  -0.07169  -0.04373  -0.03796
 Alpha virt. eigenvalues --   -0.02615  -0.01818  -0.01674  -0.00618   0.00517
 Alpha virt. eigenvalues --    0.01209   0.01550   0.01956   0.02931   0.03554

  Beta  occ. eigenvalues --  -19.42933 -14.64411 -10.42771 -10.41429 -10.35444
  Beta  occ. eigenvalues --  -10.34595 -10.34530 -10.33908 -10.33309 -10.33291
  Beta  occ. eigenvalues --  -10.32620  -1.33275  -1.06979  -0.99509  -0.94405
  Beta  occ. eigenvalues --   -0.90065  -0.86274  -0.84284  -0.84078  -0.80770
  Beta  occ. eigenvalues --   -0.77126  -0.74169  -0.67467  -0.65534  -0.63195
  Beta  occ. eigenvalues --   -0.62682  -0.61135  -0.59317  -0.58834  -0.58088
  Beta  occ. eigenvalues --   -0.57327  -0.56662  -0.54922  -0.54739  -0.53319
  Beta  occ. eigenvalues --   -0.53073  -0.52564  -0.51778  -0.50930  -0.49726
  Beta  occ. eigenvalues --   -0.48332  -0.47922  -0.47304
  Beta virt. eigenvalues --   -0.29495  -0.11880  -0.07387  -0.06819  -0.04135
  Beta virt. eigenvalues --   -0.03638  -0.02381  -0.01585  -0.01440  -0.00420
  Beta virt. eigenvalues --    0.00815   0.01358   0.01813   0.02094   0.03044

 Mulliken charges and spin densities:
               1          2
     1  C   -0.458079   0.051297
     2  C    0.144262  -0.032202
     3  C   -0.460120   0.016386
     4  C   -0.291149   0.004720
     5  C   -0.303762  -0.001221
     6  C   -0.289305   0.004381
     7  C    0.126491  -0.032593
     8  C   -0.449523   0.049031
     9  C   -0.519102   0.013669
    10  N   -0.000811   0.713884
    11  O   -0.381380   0.215629
    12  H    0.203265   0.006245
    13  H    0.191138  -0.002671
    14  H    0.177886  -0.001872
    15  H    0.196327  -0.000983
    16  H    0.197489  -0.000118
    17  H    0.178936   0.000407
    18  H    0.175113   0.000802
    19  H    0.190826  -0.000700
    20  H    0.196072   0.000753
    21  H    0.166446   0.000543
    22  H    0.177394   0.000742
    23  H    0.190104  -0.000934
    24  H    0.173243  -0.002742
    25  H    0.206224   0.006951
    26  H    0.193114  -0.001854
    27  H    0.174204  -0.000750
    28  H    0.203730   0.000467
    29  H    0.223753  -0.000512
    30  H    0.467214  -0.006753
 Sum of Mulliken charges =   1.00000   1.00000

 Dipole moment (field-independent basis, Debye):
    X=              1.6902    Y=             -1.0286    Z=             -0.1508  Tot=              1.9843
 Quadrupole moment (field-independent basis, Debye-Ang):
   XX=            -49.4041   YY=            -55.9659   ZZ=            -62.3958
   XY=             -3.5902   XZ=             -0.5967   YZ=              0.3080

  Exact polarizability: 112.296  -1.083 101.530  -0.289   0.067  89.519
 Approx polarizability: 147.777  -0.614 149.034  -0.537   0.661 130.630

                      1                      2                      3
                      A                      A                      A
 Frequencies --     70.8254               114.7423               189.1140
 Red. masses --      3.8887                 2.4660                 3.3006
 Frc consts  --      0.0115                 0.0191                 0.0695
 IR Inten    --      0.0547                 0.0562                 0.1495

                      4                      5                      6
                      A                      A                      A
 Frequencies --    210.3427               236.6795               266.3474
 Red. masses --      1.0758                 1.1227                 1.0727
 Frc consts  --      0.0280                 0.0371                 0.0448
 IR Inten    --      0.0824                 0.1306                 0.1610

                      7                      8                      9
                      A                      A                      A
 Frequencies --    276.6047               280.8075               286.2968
 Red. masses --      2.1035                 1.6931                 1.4288
 Frc consts  --      0.0948                 0.0787                 0.0690
 IR Inten    --      0.1605                 0.6209                 1.5179

                     10                     11                     12
                      A                      A                      A
 Frequencies --    305.0749               311.0968               324.2566
 Red. masses --      2.3743                 2.1834                 2.8989
 Frc consts  --      0.1302                 0.1245                 0.1796
 IR Inten    --      0.2730                 0.1961                 0.0839

                     13                     14                     15
                      A                      A                      A
 Frequencies --    380.0387               386.5977               401.4684
 Red. masses --      2.2233                 2.6573                 1.8619
 Frc consts  --      0.1892                 0.2340                 0.1768
 IR Inten    --     11.6024                 6.5797                 0.1602

                     16                     17                     18
                      A                      A                      A
 Frequencies --    436.6910               446.5381               472.1168
 Red. masses --      2.6791                 1.3759                 2.7441
 Frc consts  --      0.3010                 0.1616                 0.3604
 IR Inten    --      8.6895                58.3417                 7.2329

                     19                     20                     21
                      A                      A                      A
 Frequencies --    510.8248               553.6908               568.2173
 Red. masses --      2.8396                 3.9732                 2.2360
 Frc consts  --      0.4366                 0.7177                 0.4253
 IR Inten    --      4.2700                 8.0723                 0.8855

                     22                     23                     24
                      A                      A                      A
 Frequencies --    614.1656               769.9771               778.3053
 Red. masses --      3.2320                 2.5452                 2.8996
 Frc consts  --      0.7183                 0.8890                 1.0349
 IR Inten    --      3.2376                 0.4936                 3.1752

                     25                     26                     27
                      A                      A                      A
 Frequencies --    863.6783               884.1163               913.4377
 Red. masses --      1.8171                 2.3809                 2.2801
 Frc consts  --      0.7986                 1.0965                 1.1209
 IR Inten    --      6.0877                 0.3355                14.7508

                     28                     29                     30
                      A                      A                      A
 Frequencies --    940.5606               943.9712               956.2595
 Red. masses --      1.7724                 1.8924                 1.7038
 Frc consts  --      0.9238                 0.9935                 0.9180
 IR Inten    --      0.2973                 8.1279                 5.8945

                     31                     32                     33
                      A                      A                      A
 Frequencies --    977.0575               988.6680              1020.4902
 Red. masses --      1.7813                 1.7352                 1.3598
 Frc consts  --      1.0019                 0.9993                 0.8344
 IR Inten    --      2.7464                 7.2140                 1.0470

                     34                     35                     36
                      A                      A                      A
 Frequencies --   1032.1134              1068.2744              1080.7461
 Red. masses --      1.2881                 1.5957                 1.8259
 Frc consts  --      0.8084                 1.0730                 1.2565
 IR Inten    --      2.2424                 1.8145                 1.9939

                     37                     38                     39
                      A                      A                      A
 Frequencies --   1107.4412              1136.0034              1178.1081
 Red. masses --      1.5524                 1.8493                 2.0341
 Frc consts  --      1.1217                 1.4061                 1.6634
 IR Inten    --      1.1323                34.6484                 1.7011

                     40                     41                     42
                      A                      A                      A
 Frequencies --   1213.3561              1222.9022              1241.9467
 Red. masses --      3.1414                 4.3369                 2.2136
 Frc consts  --      2.7249                 3.8213                 2.0117
 IR Inten    --     14.6537                56.3927                 1.4659

                     43                     44                     45
                      A                      A                      A
 Frequencies --   1261.3617              1266.0962              1299.3827
 Red. masses --      1.6313                 1.4247                 3.7494
 Frc consts  --      1.5292                 1.3455                 3.7298
 IR Inten    --      2.9059                 6.7077                 6.3222

                     46                     47                     48
                      A                      A                      A
 Frequencies --   1333.1009              1383.7767              1405.7482
 Red. masses --      1.2759                 1.3622                 1.4720
 Frc consts  --      1.3359                 1.5369                 1.7138
 IR Inten    --      0.4209                 4.5425                 0.2200

                     49                     50                     51
                      A                      A                      A
 Frequencies --   1411.5375              1421.2847              1431.2049
 Red. masses --      1.3707                 1.2003                 1.2032
 Frc consts  --      1.6091                 1.4286                 1.4521
 IR Inten    --      9.8009                 4.4623                20.7572

                     52                     53                     54
                      A                      A                      A
 Frequencies --   1444.4981              1451.5796              1469.0077
 Red. masses --      1.2270                 1.2313                 1.2739
 Frc consts  --      1.5084                 1.5287                 1.6197
 IR Inten    --     17.4686                10.0450                54.4861

                     55                     56                     57
                      A                      A                      A
 Frequencies --   1499.8416              1503.5818              1507.9731
 Red. masses --      1.0593                 1.0525                 1.0631
 Frc consts  --      1.4040                 1.4019                 1.4244
 IR Inten    --      0.7221                 0.0630                 0.2482

                     58                     59                     60
                      A                      A                      A
 Frequencies --   1511.7104              1516.4723              1523.1611
 Red. masses --      1.0519                 1.0804                 1.0578
 Frc consts  --      1.4163                 1.4639                 1.4459
 IR Inten    --      1.6024                10.2333                 9.4172

                     61                     62                     63
                      A                      A                      A
 Frequencies --   1527.0630              1529.1230              1530.2321
 Red. masses --      1.0609                 1.0830                 1.0521
 Frc consts  --      1.4576                 1.4920                 1.4516
 IR Inten    --     19.2054                 8.4080                25.5253

                     64                     65                     66
                      A                      A                      A
 Frequencies --   1539.3039              1544.1979              3036.2535
 Red. masses --      1.0574                 1.0490                 1.0492
 Frc consts  --      1.4761                 1.4737                 5.6991
 IR Inten    --      8.0606                31.7063                 9.9439

                     67                     68                     69
                      A                      A                      A
 Frequencies --   3059.8507              3060.2311              3072.3743
 Red. masses --      1.0658                 1.0669                 1.0589
 Frc consts  --      5.8795                 5.8869                 5.8890
 IR Inten    --      5.7744                 5.8310                 9.7111

                     70                     71                     72
                      A                      A                      A
 Frequencies --   3074.5968              3077.7713              3080.3169
 Red. masses --      1.0372                 1.0380                 1.0366
 Frc consts  --      5.7769                 5.7934                 5.7952
 IR Inten    --      1.5252                12.9369                 1.4382

                     73                     74                     75
                      A                      A                      A
 Frequencies --   3112.7681              3114.9472              3118.9528
 Red. masses --      1.0982                 1.0981                 1.0913
 Frc consts  --      6.2694                 6.2778                 6.2545
 IR Inten    --      5.5363                 5.5332                 0.7178

                     76                     77                     78
                      A                      A                      A
 Frequencies --   3120.3184              3145.2282              3150.3118
 Red. masses --      1.1014                 1.1034                 1.1036
 Frc consts  --      6.3183                 6.4311                 6.4532
 IR Inten    --     19.4072                 5.2531                 6.1981

                     79                     80                     81
                      A                      A                      A
 Frequencies --   3154.9740              3155.7924              3163.2706
 Red. masses --      1.1030                 1.1034                 1.1047
 Frc consts  --      6.4685                 6.4747                 6.5129
 IR Inten    --      3.3599                 2.0797                 5.7578

                     82                     83                     84
                      A                      A                      A
 Frequencies --   3169.4949              3173.0619              3615.6490
 Red. masses --      1.1038                 1.1018                 1.0661
 Frc consts  --      6.5329                 6.5359                 8.2113
 IR Inten    --      5.7523                11.8271               143.6490

 - Thermochemistry -
 -------------------
 Temperature     0.001 Kelvin.  Pressure   1.00000 Atm.
 Atom     1 has atomic number  6 and mass  12.00000

 Molecular mass:   157.14666 amu.
 Principal axes and moments of inertia in atomic units:
                           1         2         3
     Eigenvalues --  1252.962011739.188952171.92625
           X            0.99992  -0.01241  -0.00058
           Y            0.01241   0.99991   0.00499
           Z            0.00052  -0.00499   0.99999
 This molecule is an asymmetric top.
 Rotational symmetry number  1.
 Warning -- assumption of classical behavior for rotation
           may cause significant error
 Rotational temperatures (Kelvin)      0.06913     0.04980     0.03988
 Rotational constants (GHZ):           1.44038     1.03769     0.83094
 Zero-point vibrational energy     723306.2 (Joules/Mol)
                                  172.87433 (Kcal/Mol)
 Vibrational temperatures:    101.90   165.09   272.09   302.64   340.53
          (Kelvin)            383.21   397.97   404.02   411.92   438.93
                              447.60   466.53   546.79   556.23   577.62
                              628.30   642.47   679.27   734.96   796.64
                              817.54   883.65  1107.83  1119.81  1242.64
                             1272.05  1314.23  1353.26  1358.16  1375.84
                             1405.77  1422.47  1468.26  1484.98  1537.01
                             1554.95  1593.36  1634.46  1695.03  1745.75
                             1759.48  1786.88  1814.82  1821.63  1869.52
                             1918.03  1990.95  2022.56  2030.89  2044.91
                             2059.18  2078.31  2088.50  2113.57  2157.94
                             2163.32  2169.64  2175.01  2181.87  2191.49
                             2197.10  2200.07  2201.66  2214.71  2221.76
                             4368.49  4402.44  4402.99  4420.46  4423.66
                             4428.23  4431.89  4478.58  4481.71  4487.48
                             4489.44  4525.28  4532.60  4539.30  4540.48
                             4551.24  4560.20  4565.33  5202.11

 Zero-point correction=                           0.275493 (Hartree/Particle)
 Thermal correction to Energy=                    0.275493
 Thermal correction to Enthalpy=                  0.275493
 Thermal correction to Gibbs Free Energy=         0.275493
 Sum of electronic and zero-point Energies=           -483.796592
 Sum of electronic and thermal Energies=              -483.796592
 Sum of electronic and thermal Enthalpies=            -483.796592
 Sum of electronic and thermal Free Energies=         -483.796592

                     E (Thermal)             CV                S
                      KCal/Mol        Cal/Mol-Kelvin    Cal/Mol-Kelvin
 Total                  172.874              5.962            -27.817
 Electronic               0.000              0.000              1.377
 Translational            0.000              2.981            -21.558
 Rotational               0.000              2.981             -7.636
 Vibrational            172.874              0.000              0.000

 Optimization completed.
    -- Stationary point found.
 Normal termination of Gaussian 16 at Mon Oct 14 02:26:34 2019.
