 Gaussian 16, Revision A.03,
 Gaussian 16:  ES64L-G16RevA.03 25-Dec-2016

 --------------------------------------------------------------
 #P opt freq b3lyp/6-31g(d) geom=connectivity temperature=0.001
 --------------------------------------------------------------

 -------------------
 Title Card Required
 -------------------
 Symbolic Z-matrix:
 Charge =  0 Multiplicity = 1

 SCF Done:  E(RB3LYP) =  -646.891357521     A.U. after   18 cycles
 SCF Done:  E(RB3LYP) =  -646.923141744     A.U. after   13 cycles
 SCF Done:  E(RB3LYP) =  -646.929754989     A.U. after   13 cycles
 SCF Done:  E(RB3LYP) =  -646.936169758     A.U. after   13 cycles
 SCF Done:  E(RB3LYP) =  -646.945121929     A.U. after   15 cycles
 SCF Done:  E(RB3LYP) =  -646.949839975     A.U. after   14 cycles
 SCF Done:  E(RB3LYP) =  -646.952635869     A.U. after   13 cycles
 SCF Done:  E(RB3LYP) =  -646.953285509     A.U. after   12 cycles
 SCF Done:  E(RB3LYP) =  -646.953415287     A.U. after   11 cycles
 SCF Done:  E(RB3LYP) =  -646.953439247     A.U. after   10 cycles
 SCF Done:  E(RB3LYP) =  -646.953445863     A.U. after    9 cycles
 SCF Done:  E(RB3LYP) =  -646.953448355     A.U. after    8 cycles
 SCF Done:  E(RB3LYP) =  -646.953449110     A.U. after    8 cycles
 SCF Done:  E(RB3LYP) =  -646.953449300     A.U. after    8 cycles
 Optimization completed.
    -- Stationary point found.
 Normal termination of Gaussian 16 at Mon Oct 14 02:22:33 2019.

 --------------------------------------------------------------------
 #P Geom=AllCheck Guess=TCheck SCRF=Check GenChk RB3LYP/6-31G(d) Freq
 --------------------------------------------------------------------

 Structure from the checkpoint file:  "7.chk"
 -------------------
 Title Card Required
 -------------------
 Charge =  0 Multiplicity = 1

                         Standard orientation:
 ---------------------------------------------------------------------
 Center     Atomic      Atomic             Coordinates (Angstroms)
 Number     Number       Type             X           Y           Z
 ---------------------------------------------------------------------
      1          6           0       -1.532889   -3.513219   -0.025138
      2          8           0       -1.719137   -2.094017    0.059631
      3          6           0       -0.598761   -1.359199    0.037157
      4          7           0        0.605688   -1.840724   -0.044786
      5          6           0        1.451605   -0.711592   -0.037036
      6          6           0        2.840174   -0.714348   -0.099817
      7          6           0        3.511880    0.514045   -0.066618
      8          6           0        2.809048    1.718717    0.036412
      9          6           0        1.409892    1.725698    0.103329
     10          6           0        0.728726    0.510336    0.053536
     11          6           0       -0.676566    0.108690    0.086024
     12          6           0       -1.842151    0.801627    0.101746
     13          7           0       -1.955669    2.170399    0.168164
     14          8           0       -3.194011    2.656583   -0.328777
     15          1           0       -0.930970   -3.871349    0.814969
     16          1           0       -2.535096   -3.943059    0.006919
     17          1           0       -1.027650   -3.778296   -0.958378
     18          1           0        3.380780   -1.653475   -0.169156
     19          1           0        4.597621    0.530675   -0.113972
     20          1           0        3.351712    2.659251    0.073621
     21          1           0        0.888008    2.673258    0.218912
     22          1           0       -2.793869    0.279875    0.117400
     23          1           0       -1.205161    2.693940   -0.276336
     24          1           0       -3.576068    3.116392    0.437978
 ---------------------------------------------------------------------

 SCF Done:  E(RB3LYP) =  -646.953449300     A.U. after    1 cycles

 The electronic state is 1-A.
 Alpha  occ. eigenvalues --  -19.21011 -19.18700 -14.42410 -14.30244 -10.27004
 Alpha  occ. eigenvalues --  -10.24900 -10.23425 -10.20111 -10.19647 -10.18836
 Alpha  occ. eigenvalues --  -10.18463 -10.17965 -10.17804 -10.17462  -1.10060
 Alpha  occ. eigenvalues --   -1.07816  -0.93566  -0.89173  -0.82800  -0.77806
 Alpha  occ. eigenvalues --   -0.73291  -0.72619  -0.69818  -0.64683  -0.59771
 Alpha  occ. eigenvalues --   -0.58419  -0.57395  -0.54524  -0.51795  -0.49617
 Alpha  occ. eigenvalues --   -0.49516  -0.47096  -0.46795  -0.45631  -0.43490
 Alpha  occ. eigenvalues --   -0.42216  -0.40982  -0.40390  -0.39665  -0.35907
 Alpha  occ. eigenvalues --   -0.34669  -0.34348  -0.34027  -0.33732  -0.33000
 Alpha  occ. eigenvalues --   -0.29202  -0.26549  -0.26162  -0.21207  -0.20183
 Alpha virt. eigenvalues --   -0.04870   0.00740   0.04409   0.05252   0.06432
 Alpha virt. eigenvalues --    0.09838   0.11416   0.12276   0.12717   0.13187
 Alpha virt. eigenvalues --    0.15753   0.16373   0.16962   0.17914   0.19157

 Mulliken charges:
               1
     1  C   -0.209797
     2  O   -0.507142
     3  C    0.510748
     4  N   -0.588708
     5  C    0.249334
     6  C   -0.187891
     7  C   -0.137294
     8  C   -0.142821
     9  C   -0.222104
    10  C    0.098403
    11  C    0.040956
    12  C   -0.003349
    13  N   -0.362921
    14  O   -0.496744
    15  H    0.171573
    16  H    0.158748
    17  H    0.171162
    18  H    0.132886
    19  H    0.123805
    20  H    0.120530
    21  H    0.107879
    22  H    0.190721
    23  H    0.358643
    24  H    0.423381
 Sum of Mulliken charges =   0.00000

 Dipole moment (field-independent basis, Debye):
    X=             -2.4686    Y=              1.9882    Z=              0.6838  Tot=              3.2426
 Quadrupole moment (field-independent basis, Debye-Ang):
   XX=            -71.8720   YY=            -65.6076   ZZ=            -83.3281
   XY=             -0.7414   XZ=             -4.1637   YZ=              2.6256

  Exact polarizability: 193.486  -5.727 154.575  -3.948   3.571  50.689
 Approx polarizability: 317.145 -26.677 247.804  -8.751   7.995  78.711

                      1                      2                      3
                      A                      A                      A
 Frequencies --     65.7165                91.8958               101.0724
 Red. masses --      4.7433                 3.9799                 5.0131
 Frc consts  --      0.0121                 0.0198                 0.0302
 IR Inten    --      0.6880                 3.5000                 1.2721

                      4                      5                      6
                      A                      A                      A
 Frequencies --    127.2706               146.1238               179.5842
 Red. masses --      2.7083                 1.4254                 3.6524
 Frc consts  --      0.0258                 0.0179                 0.0694
 IR Inten    --      3.2314                 0.9879                 1.5899

                      7                      8                      9
                      A                      A                      A
 Frequencies --    184.3166               223.5151               310.2705
 Red. masses --      2.6248                 3.4781                 5.8288
 Frc consts  --      0.0525                 0.1024                 0.3306
 IR Inten    --      0.5440                 5.1806                 5.8319

                     10                     11                     12
                      A                      A                      A
 Frequencies --    340.5818               345.7498               376.5683
 Red. masses --      3.3385                 4.6843                 2.0917
 Frc consts  --      0.2282                 0.3299                 0.1748
 IR Inten    --      3.0664                 5.6498                45.3203

                     13                     14                     15
                      A                      A                      A
 Frequencies --    400.4739               418.7743               492.3085
 Red. masses --      3.2100                 2.3934                 6.6745
 Frc consts  --      0.3033                 0.2473                 0.9531
 IR Inten    --     26.9746                32.1574                15.2775

                     16                     17                     18
                      A                      A                      A
 Frequencies --    506.2618               587.4453               602.5627
 Red. masses --      3.6019                 4.2091                 5.2393
 Frc consts  --      0.5439                 0.8558                 1.1208
 IR Inten    --      9.3806                15.4057                 0.6981

                     19                     20                     21
                      A                      A                      A
 Frequencies --    652.1960               701.4747               708.5613
 Red. masses --      6.6557                 2.0827                 4.2909
 Frc consts  --      1.6680                 0.6038                 1.2693
 IR Inten    --     17.3432               223.0146                72.3999

                     22                     23                     24
                      A                      A                      A
 Frequencies --    721.9740               762.8712               770.3205
 Red. masses --      5.8228                 1.4281                 5.0527
 Frc consts  --      1.7882                 0.4897                 1.7665
 IR Inten    --     25.4380                61.5289                 1.8639

                     25                     26                     27
                      A                      A                      A
 Frequencies --    799.7523               864.2702               896.7917
 Red. masses --      3.5401                 1.4077                 6.4773
 Frc consts  --      1.3341                 0.6195                 3.0692
 IR Inten    --     89.7306                 1.2035                 0.4343

                     28                     29                     30
                      A                      A                      A
 Frequencies --    916.1979               927.7966               958.8438
 Red. masses --      1.3845                 1.3953                 6.7628
 Frc consts  --      0.6847                 0.7077                 3.6633
 IR Inten    --      1.1416                11.3939                 4.7301

                     31                     32                     33
                      A                      A                      A
 Frequencies --    968.9115              1047.2139              1051.9684
 Red. masses --      1.2472                 2.5862                 4.2574
 Frc consts  --      0.6898                 1.6710                 2.7759
 IR Inten    --      0.3376                12.4594                51.4953

                     34                     35                     36
                      A                      A                      A
 Frequencies --   1114.8005              1118.4869              1171.1248
 Red. masses --      3.8153                 2.6603                 1.7101
 Frc consts  --      2.7937                 1.9608                 1.3819
 IR Inten    --     49.0840                31.1574                 0.1006

                     37                     38                     39
                      A                      A                      A
 Frequencies --   1185.9304              1194.4715              1220.6578
 Red. masses --      1.2650                 1.2974                 1.6318
 Frc consts  --      1.0482                 1.0907                 1.4326
 IR Inten    --      0.7326                 3.6193                40.9724

                     40                     41                     42
                      A                      A                      A
 Frequencies --   1254.4330              1280.5257              1308.7299
 Red. masses --      3.2797                 2.3488                 1.4825
 Frc consts  --      3.0408                 2.2692                 1.4961
 IR Inten    --     53.3238                40.3722                18.6203

                     43                     44                     45
                      A                      A                      A
 Frequencies --   1350.1427              1397.8153              1410.8007
 Red. masses --      2.1723                 2.6045                 3.0764
 Frc consts  --      2.3331                 2.9983                 3.6077
 IR Inten    --     85.8348                60.9644               274.0345

                     46                     47                     48
                      A                      A                      A
 Frequencies --   1442.1846              1468.6275              1494.1909
 Red. masses --      1.3576                 1.4067                 1.5581
 Frc consts  --      1.6637                 1.7877                 2.0495
 IR Inten    --    163.0746                36.3978                22.4483

                     49                     50                     51
                      A                      A                      A
 Frequencies --   1496.7848              1506.8244              1520.2774
 Red. masses --      2.2164                 1.0484                 2.6332
 Frc consts  --      2.9256                 1.4025                 3.5857
 IR Inten    --     56.3844                 5.5612                 7.8578

                     52                     53                     54
                      A                      A                      A
 Frequencies --   1526.4843              1606.8173              1636.1645
 Red. masses --      1.0546                 6.4819                 5.5257
 Frc consts  --      1.4478                 9.8602                 8.7155
 IR Inten    --     14.0290               323.8231                 3.2892

                     55                     56                     57
                      A                      A                      A
 Frequencies --   1673.0924              1711.7265              3068.2577
 Red. masses --      6.9393                 6.5482                 1.0291
 Frc consts  --     11.4448                11.3042                 5.7080
 IR Inten    --      7.3417               334.5721                51.5574

                     58                     59                     60
                      A                      A                      A
 Frequencies --   3141.6522              3168.4245              3173.6958
 Red. masses --      1.1073                 1.0869                 1.1073
 Frc consts  --      6.4394                 6.4288                 6.5710
 IR Inten    --     22.2827                15.4101                22.5409

                     61                     62                     63
                      A                      A                      A
 Frequencies --   3184.8840              3201.4731              3212.7561
 Red. masses --      1.0877                 1.0932                 1.0952
 Frc consts  --      6.5005                 6.6017                 6.6602
 IR Inten    --     10.7444                32.0658                20.9162

                     64                     65                     66
                      A                      A                      A
 Frequencies --   3228.3736              3522.0330              3711.6619
 Red. masses --      1.0906                 1.0765                 1.0685
 Frc consts  --      6.6968                 7.8679                 8.6730
 IR Inten    --      1.5661                11.6024                64.0641

 - Thermochemistry -
 -------------------
 Temperature     0.001 Kelvin.  Pressure   1.00000 Atm.
 Atom     1 has atomic number  6 and mass  12.00000

 Molecular mass:   190.07423 amu.
 Principal axes and moments of inertia in atomic units:
                           1         2         3
     Eigenvalues --  2314.468732941.929345222.27107
           X            0.99825   0.05908  -0.00240
           Y           -0.05907   0.99825   0.00320
           Z            0.00258  -0.00305   0.99999
 This molecule is an asymmetric top.
 Rotational symmetry number  1.
 Warning -- assumption of classical behavior for rotation
           may cause significant error
 Rotational temperatures (Kelvin)      0.03742     0.02944     0.01659
 Rotational constants (GHZ):           0.77976     0.61345     0.34559
 Zero-point vibrational energy     496174.8 (Joules/Mol)
                                  118.58861 (Kcal/Mol)
 Vibrational temperatures:     94.55   132.22   145.42   183.11   210.24
          (Kelvin)            258.38   265.19   321.59   446.41   490.02
                              497.46   541.80   576.19   602.52   708.32
                              728.40   845.20   866.95   938.36  1009.27
                             1019.46  1038.76  1097.60  1108.32  1150.67
                             1243.49  1290.28  1318.20  1334.89  1379.56
                             1394.05  1506.71  1513.55  1603.95  1609.25
                             1684.99  1706.29  1718.58  1756.25  1804.85
                             1842.39  1882.97  1942.55  2011.14  2029.83
                             2074.98  2113.03  2149.81  2153.54  2167.98
                             2187.34  2196.27  2311.85  2354.08  2407.21
                             2462.79  4414.54  4520.14  4558.66  4566.24
                             4582.34  4606.21  4622.44  4644.91  5067.42
                             5340.25

 Zero-point correction=                           0.188983 (Hartree/Particle)
 Thermal correction to Energy=                    0.188983
 Thermal correction to Enthalpy=                  0.188983
 Thermal correction to Gibbs Free Energy=         0.188983
 Sum of electronic and zero-point Energies=           -646.764466
 Sum of electronic and thermal Energies=              -646.764466
 Sum of electronic and thermal Enthalpies=            -646.764466
 Sum of electronic and thermal Free Energies=         -646.764466

                     E (Thermal)             CV                S
                      KCal/Mol        Cal/Mol-Kelvin    Cal/Mol-Kelvin
 Total                  118.589              5.962            -26.623
 Electronic               0.000              0.000              0.000
 Translational            0.000              2.981            -20.991
 Rotational               0.000              2.981             -5.632
 Vibrational            118.589              0.000              0.000

 Optimization completed.
    -- Stationary point found.
 Normal termination of Gaussian 16 at Mon Oct 14 02:23:24 2019.
