 Gaussian 16, Revision A.03,
 Gaussian 16:  ES64L-G16RevA.03 25-Dec-2016

 --------------------------------------------------------------
 #P opt freq b3lyp/6-31g(d) geom=connectivity temperature=0.001
 --------------------------------------------------------------

 -------------------
 Title Card Required
 -------------------
 Symbolic Z-matrix:
 Charge =  1 Multiplicity = 1

 SCF Done:  E(RB3LYP) =  -647.187023396     A.U. after   19 cycles
 SCF Done:  E(RB3LYP) =  -647.239863432     A.U. after   14 cycles
 SCF Done:  E(RB3LYP) =  -647.260260923     A.U. after   14 cycles
 SCF Done:  E(RB3LYP) =  -647.264657521     A.U. after   13 cycles
 SCF Done:  E(RB3LYP) =  -647.272990808     A.U. after   15 cycles
 SCF Done:  E(RB3LYP) =  -647.276631798     A.U. after   14 cycles
 SCF Done:  E(RB3LYP) =  -647.278909394     A.U. after   12 cycles
 SCF Done:  E(RB3LYP) =  -647.279358883     A.U. after   11 cycles
 SCF Done:  E(RB3LYP) =  -647.279442982     A.U. after   11 cycles
 SCF Done:  E(RB3LYP) =  -647.279503443     A.U. after   11 cycles
 SCF Done:  E(RB3LYP) =  -647.271445665     A.U. after   14 cycles
 SCF Done:  E(RB3LYP) =  -647.283327565     A.U. after    9 cycles
 SCF Done:  E(RB3LYP) =  -647.283568409     A.U. after   13 cycles
 SCF Done:  E(RB3LYP) =  -647.283751368     A.U. after   12 cycles
 SCF Done:  E(RB3LYP) =  -647.283805649     A.U. after   12 cycles
 SCF Done:  E(RB3LYP) =  -647.283812670     A.U. after   11 cycles
 SCF Done:  E(RB3LYP) =  -647.283814609     A.U. after    9 cycles
 SCF Done:  E(RB3LYP) =  -647.283815428     A.U. after    8 cycles
 SCF Done:  E(RB3LYP) =  -647.283815658     A.U. after    7 cycles
 Optimization completed.
    -- Stationary point found.
 Normal termination of Gaussian 16 at Mon Oct 14 02:27:21 2019.

 --------------------------------------------------------------------
 #P Geom=AllCheck Guess=TCheck SCRF=Check GenChk RB3LYP/6-31G(d) Freq
 --------------------------------------------------------------------

 Structure from the checkpoint file:  "7_p.chk"
 -------------------
 Title Card Required
 -------------------
 Charge =  1 Multiplicity = 1

                         Standard orientation:
 ---------------------------------------------------------------------
 Center     Atomic      Atomic             Coordinates (Angstroms)
 Number     Number       Type             X           Y           Z
 ---------------------------------------------------------------------
      1          6           0       -3.742907   -1.293244   -0.103022
      2          8           0       -2.799043   -0.191816   -0.056182
      3          6           0       -1.520825   -0.518136   -0.026985
      4          7           0       -1.006397   -1.698095   -0.025124
      5          6           0        0.401174   -1.502185    0.010910
      6          6           0        1.369058   -2.489779    0.006940
      7          6           0        2.717828   -2.092631    0.009154
      8          6           0        3.089155   -0.744154   -0.006017
      9          6           0        2.110834    0.255035   -0.009706
     10          6           0        0.767124   -0.128526    0.031455
     11          6           0       -0.496420    0.589501    0.063350
     12          6           0       -0.839138    1.873441    0.262282
     13          7           0        0.194911    2.864516    0.516991
     14          8           0        0.681839    3.427293   -0.724302
     15          1           0       -3.624025   -1.917272    0.785349
     16          1           0       -4.725682   -0.825944   -0.128791
     17          1           0       -3.565532   -1.890197   -1.000047
     18          1           0        1.088661   -3.537351   -0.007427
     19          1           0        3.491555   -2.854526    0.000651
     20          1           0        4.138810   -0.472403   -0.040263
     21          1           0        2.416041    1.295506   -0.108359
     22          1           0       -1.847420    2.263458    0.245835
     23          1           0       -0.178730    3.626755    1.097618
     24          1           0        1.299496    4.148818   -0.475096
     25          1           0        0.989564    2.418466    1.001176
 ---------------------------------------------------------------------

 SCF Done:  E(RB3LYP) =  -647.283815658     A.U. after    1 cycles

 The electronic state is 1-A.
 Alpha  occ. eigenvalues --  -19.40769 -19.32867 -14.70608 -14.45301 -10.42469
 Alpha  occ. eigenvalues --  -10.41326 -10.39213 -10.35446 -10.35128 -10.34450
 Alpha  occ. eigenvalues --  -10.33901 -10.32587 -10.31917 -10.31579  -1.31358
 Alpha  occ. eigenvalues --   -1.22153  -1.12109  -1.08642  -0.97877  -0.95891
 Alpha  occ. eigenvalues --   -0.88617  -0.87118  -0.85278  -0.81740  -0.80792
 Alpha  occ. eigenvalues --   -0.78469  -0.73836  -0.73605  -0.69346  -0.67492
 Alpha  occ. eigenvalues --   -0.65500  -0.63539  -0.61439  -0.60386  -0.60063
 Alpha  occ. eigenvalues --   -0.57950  -0.56610  -0.55584  -0.54584  -0.54045
 Alpha  occ. eigenvalues --   -0.52174  -0.49578  -0.48703  -0.48302  -0.47654
 Alpha  occ. eigenvalues --   -0.46248  -0.43120  -0.40760  -0.38415  -0.34899
 Alpha virt. eigenvalues --   -0.24137  -0.15610  -0.14752  -0.13692  -0.10005
 Alpha virt. eigenvalues --   -0.09087  -0.06939  -0.03532  -0.03003  -0.01910
 Alpha virt. eigenvalues --   -0.00375   0.01333   0.01918   0.02568   0.04398

 Mulliken charges:
               1
     1  C   -0.235486
     2  O   -0.488447
     3  C    0.564812
     4  N   -0.535086
     5  C    0.263849
     6  C   -0.172894
     7  C   -0.115624
     8  C   -0.136425
     9  C   -0.203302
    10  C    0.088655
    11  C    0.116122
    12  C   -0.119736
    13  N   -0.409380
    14  O   -0.423829
    15  H    0.198230
    16  H    0.196278
    17  H    0.201392
    18  H    0.187741
    19  H    0.182760
    20  H    0.171438
    21  H    0.128517
    22  H    0.243645
    23  H    0.431813
    24  H    0.445761
    25  H    0.419197
 Sum of Mulliken charges =   1.00000

 Dipole moment (field-independent basis, Debye):
    X=              1.4738    Y=              9.0568    Z=              2.9542  Tot=              9.6398
 Quadrupole moment (field-independent basis, Debye-Ang):
   XX=            -48.5577   YY=            -28.0893   ZZ=            -78.6225
   XY=              5.8606   XZ=              0.6729   YZ=             10.0423

  Exact polarizability: 171.917 -18.129 170.392  -1.983   2.728  54.417
 Approx polarizability: 273.351 -52.102 296.243  -4.748   5.923  85.489

                      1                      2                      3
                      A                      A                      A
 Frequencies --     68.6939                77.3418                94.0974
 Red. masses --      4.2286                 5.6748                 3.6904
 Frc consts  --      0.0118                 0.0200                 0.0193
 IR Inten    --      7.5736                 0.1612                 6.2459

                      4                      5                      6
                      A                      A                      A
 Frequencies --    129.6104               141.9431               157.4149
 Red. masses --      1.8057                 1.7803                 3.1581
 Frc consts  --      0.0179                 0.0211                 0.0461
 IR Inten    --      5.4803                 2.2177                15.9833

                      7                      8                      9
                      A                      A                      A
 Frequencies --    187.5175               192.2721               281.9146
 Red. masses --      3.4876                 3.6424                 1.4480
 Frc consts  --      0.0723                 0.0793                 0.0678
 IR Inten    --      7.2447                 4.3970               102.4981

                     10                     11                     12
                      A                      A                      A
 Frequencies --    295.9650               321.7479               355.1553
 Red. masses --      2.8373                 3.9006                 4.3906
 Frc consts  --      0.1464                 0.2379                 0.3263
 IR Inten    --     29.0642                 1.5748                 8.8238

                     13                     14                     15
                      A                      A                      A
 Frequencies --    402.3790               459.3307               488.9922
 Red. masses --      3.4296                 4.7309                 6.1888
 Frc consts  --      0.3272                 0.5881                 0.8719
 IR Inten    --      1.0006                26.7634                14.3035

                     16                     17                     18
                      A                      A                      A
 Frequencies --    529.1151               553.6325               585.9063
 Red. masses --      3.3481                 5.4441                 4.7061
 Frc consts  --      0.5523                 0.9831                 0.9518
 IR Inten    --      6.4299                14.1396                 9.3373

                     19                     20                     21
                      A                      A                      A
 Frequencies --    644.5722               700.7990               703.8920
 Red. masses --      7.0545                 2.8482                 3.9525
 Frc consts  --      1.7269                 0.8241                 1.1538
 IR Inten    --      4.9203                13.5256                 4.8216

                     22                     23                     24
                      A                      A                      A
 Frequencies --    747.2709               758.0181               775.2060
 Red. masses --      5.0385                 4.0888                 1.3565
 Frc consts  --      1.6577                 1.3842                 0.4803
 IR Inten    --      5.8534                 8.7418                67.6278

                     25                     26                     27
                      A                      A                      A
 Frequencies --    790.9752               870.9339               890.4801
 Red. masses --      2.5620                 6.4142                 6.5211
 Frc consts  --      0.9444                 2.8666                 3.0466
 IR Inten    --     13.8983                87.9304                 4.7660

                     28                     29                     30
                      A                      A                      A
 Frequencies --    892.0737               920.1500               947.4675
 Red. masses --      1.3414                 3.6102                 1.3723
 Frc consts  --      0.6289                 1.8009                 0.7258
 IR Inten    --      1.6355                25.2866                 1.7996

                     31                     32                     33
                      A                      A                      A
 Frequencies --    979.0328              1008.3573              1025.3503
 Red. masses --      3.0998                 1.3304                 5.2743
 Frc consts  --      1.7506                 0.7970                 3.2671
 IR Inten    --     46.8642                 0.7204                58.1452

                     34                     35                     36
                      A                      A                      A
 Frequencies --   1050.2501              1107.1561              1125.4914
 Red. masses --      2.1398                 2.6548                 2.4293
 Frc consts  --      1.3906                 1.9173                 1.8131
 IR Inten    --      6.3664                19.1820                12.8866

                     37                     38                     39
                      A                      A                      A
 Frequencies --   1180.3755              1181.8497              1205.4039
 Red. masses --      1.2612                 1.5133                 1.5209
 Frc consts  --      1.0353                 1.2454                 1.3020
 IR Inten    --      1.1338                 6.4859                17.3781

                     40                     41                     42
                      A                      A                      A
 Frequencies --   1212.6527              1243.8606              1309.6559
 Red. masses --      1.6141                 2.8018                 1.4338
 Frc consts  --      1.3985                 2.5541                 1.4489
 IR Inten    --      8.3155                 3.9529                43.6769

                     43                     44                     45
                      A                      A                      A
 Frequencies --   1319.8258              1355.0692              1371.1614
 Red. masses --      1.5667                 2.4920                 1.1569
 Frc consts  --      1.6079                 2.6960                 1.2815
 IR Inten    --    101.0373                84.5101                25.9520

                     46                     47                     48
                      A                      A                      A
 Frequencies --   1394.4581              1413.6710              1475.8177
 Red. masses --      1.4055                 3.1825                 1.2729
 Frc consts  --      1.6102                 3.7472                 1.6335
 IR Inten    --     37.2624               107.8960                60.2045

                     49                     50                     51
                      A                      A                      A
 Frequencies --   1483.2905              1490.6885              1507.6053
 Red. masses --      1.9451                 1.5263                 1.0465
 Frc consts  --      2.5215                 1.9983                 1.4014
 IR Inten    --     58.2613                17.0053                11.6115

                     52                     53                     54
                      A                      A                      A
 Frequencies --   1515.7161              1517.1678              1633.9737
 Red. masses --      1.0942                 2.2828                 5.0273
 Frc consts  --      1.4810                 3.0959                 7.9081
 IR Inten    --     17.5438                 0.8448                 6.7988

                     55                     56                     57
                      A                      A                      A
 Frequencies --   1644.6419              1660.0314              1691.5671
 Red. masses --      3.9909                 1.2509                 8.0447
 Frc consts  --      6.3601                 2.0309                13.5625
 IR Inten    --    475.2223               130.7262               147.1296

                     58                     59                     60
                      A                      A                      A
 Frequencies --   1706.0568              3089.6564              3165.4998
 Red. masses --      7.2491                 1.0288                 1.0890
 Frc consts  --     12.4315                 5.7865                 6.4294
 IR Inten    --     54.8824                18.1083                14.5148

                     61                     62                     63
                      A                      A                      A
 Frequencies --   3174.2223              3211.0630              3212.4289
 Red. masses --      1.1091                 1.1087                 1.0890
 Frc consts  --      6.5839                 6.7352                 6.6212
 IR Inten    --      7.2869                 6.9951                 1.1460

                     64                     65                     66
                      A                      A                      A
 Frequencies --   3227.8438              3236.4441              3277.9882
 Red. masses --      1.0940                 1.0953                 1.0951
 Frc consts  --      6.7155                 6.7594                 6.9332
 IR Inten    --      3.5727                 0.5813                19.1122

                     67                     68                     69
                      A                      A                      A
 Frequencies --   3335.1441              3429.0424              3615.2395
 Red. masses --      1.0572                 1.0954                 1.0679
 Frc consts  --      6.9285                 7.5888                 8.2232
 IR Inten    --     20.0924               110.9545                80.5453

 - Thermochemistry -
 -------------------
 Temperature     0.001 Kelvin.  Pressure   1.00000 Atm.
 Atom     1 has atomic number  6 and mass  12.00000

 Molecular mass:   191.08205 amu.
 Principal axes and moments of inertia in atomic units:
                           1         2         3
     Eigenvalues --  2371.244192686.250694933.67539
           X            0.99601   0.08920   0.00094
           Y           -0.08921   0.99598   0.00848
           Z           -0.00018  -0.00853   0.99996
 This molecule is an asymmetric top.
 Rotational symmetry number  1.
 Warning -- assumption of classical behavior for rotation
           may cause significant error
 Rotational temperatures (Kelvin)      0.03653     0.03224     0.01756
 Rotational constants (GHZ):           0.76109     0.67184     0.36580
 Zero-point vibrational energy     530840.6 (Joules/Mol)
                                  126.87395 (Kcal/Mol)
 Vibrational temperatures:     98.84   111.28   135.39   186.48   204.22
          (Kelvin)            226.48   269.80   276.64   405.61   425.83
                              462.92   510.99   578.93   660.87   703.55
                              761.28   796.55   842.99   927.40  1008.29
                             1012.74  1075.16  1090.62  1115.35  1138.04
                             1253.08  1281.20  1283.50  1323.89  1363.19
                             1408.61  1450.80  1475.25  1511.08  1592.95
                             1619.33  1698.30  1700.42  1734.31  1744.74
                             1789.64  1884.30  1898.93  1949.64  1972.80
                             2006.31  2033.96  2123.37  2134.12  2144.77
                             2169.11  2180.78  2182.87  2350.92  2366.27
                             2388.41  2433.79  2454.64  4445.33  4554.45
                             4567.00  4620.00  4621.97  4644.15  4656.52
                             4716.29  4798.53  4933.63  5201.52

 Zero-point correction=                           0.202187 (Hartree/Particle)
 Thermal correction to Energy=                    0.202187
 Thermal correction to Enthalpy=                  0.202187
 Thermal correction to Gibbs Free Energy=         0.202187
 Sum of electronic and zero-point Energies=           -647.081629
 Sum of electronic and thermal Energies=              -647.081629
 Sum of electronic and thermal Enthalpies=            -647.081629
 Sum of electronic and thermal Free Energies=         -647.081629

                     E (Thermal)             CV                S
                      KCal/Mol        Cal/Mol-Kelvin    Cal/Mol-Kelvin
 Total                  126.874              5.962            -26.730
 Electronic               0.000              0.000              0.000
 Translational            0.000              2.981            -20.975
 Rotational               0.000              2.981             -5.755
 Vibrational            126.874              0.000              0.000

 Optimization completed.
    -- Stationary point found.
 Normal termination of Gaussian 16 at Mon Oct 14 02:28:19 2019.
