 Gaussian 16, Revision A.03,
 Gaussian 16:  ES64L-G16RevA.03 25-Dec-2016

 --------------------------------------------------------------
 #P opt freq b3lyp/6-31g(d) geom=connectivity temperature=0.001
 --------------------------------------------------------------

 -------------------
 Title Card Required
 -------------------
 Symbolic Z-matrix:
 Charge =  0 Multiplicity = 1

 SCF Done:  E(RB3LYP) =  -170.986892917     A.U. after   12 cycles
 SCF Done:  E(RB3LYP) =  -170.995697523     A.U. after   12 cycles
 SCF Done:  E(RB3LYP) =  -171.002378662     A.U. after   12 cycles
 SCF Done:  E(RB3LYP) =  -171.007960720     A.U. after   13 cycles
 SCF Done:  E(RB3LYP) =  -171.010808019     A.U. after   11 cycles
 SCF Done:  E(RB3LYP) =  -171.013293188     A.U. after   13 cycles
 SCF Done:  E(RB3LYP) =  -171.013836688     A.U. after   11 cycles
 SCF Done:  E(RB3LYP) =  -171.015130002     A.U. after   11 cycles
 SCF Done:  E(RB3LYP) =  -171.017110313     A.U. after   12 cycles
 SCF Done:  E(RB3LYP) =  -171.018439837     A.U. after   13 cycles
 SCF Done:  E(RB3LYP) =  -171.018563472     A.U. after   11 cycles
 SCF Done:  E(RB3LYP) =  -171.018586726     A.U. after   10 cycles
 SCF Done:  E(RB3LYP) =  -171.018589565     A.U. after    8 cycles
 Optimization completed.
    -- Stationary point found.
 Normal termination of Gaussian 16 at Mon Oct 14 02:25:43 2019.

 --------------------------------------------------------------------
 #P Geom=AllCheck Guess=TCheck SCRF=Check GenChk RB3LYP/6-31G(d) Freq
 --------------------------------------------------------------------

 Structure from the checkpoint file:  "8.chk"
 -------------------
 Title Card Required
 -------------------
 Charge =  0 Multiplicity = 1

                         Standard orientation:
 ---------------------------------------------------------------------
 Center     Atomic      Atomic             Coordinates (Angstroms)
 Number     Number       Type             X           Y           Z
 ---------------------------------------------------------------------
      1          6           0        1.163424   -0.233292    0.004639
      2          7           0       -0.044297    0.573910   -0.154689
      3          8           0       -1.170226   -0.290853    0.131064
      4          1           0        1.223700   -0.952159   -0.817930
      5          1           0        2.026857    0.439711   -0.056738
      6          1           0        1.200960   -0.784993    0.955969
      7          1           0       -0.078185    1.242919    0.616416
      8          1           0       -1.681991   -0.236272   -0.691240
 ---------------------------------------------------------------------

 SCF Done:  E(RB3LYP) =  -171.018589565     A.U. after    1 cycles

 The electronic state is 1-A.
 Alpha  occ. eigenvalues --  -19.16189 -14.36775 -10.20212  -1.04390  -0.82887
 Alpha  occ. eigenvalues --   -0.65447  -0.50380  -0.47661  -0.42553  -0.39828
 Alpha  occ. eigenvalues --   -0.37902  -0.27925  -0.23728
 Alpha virt. eigenvalues --    0.08221   0.09369   0.13903   0.14650   0.17631
 Alpha virt. eigenvalues --    0.18357   0.22308   0.54851   0.56699   0.59373
 Alpha virt. eigenvalues --    0.68797   0.74663   0.78830   0.81226   0.84294

 Mulliken charges:
               1
     1  C   -0.286764
     2  N   -0.344611
     3  O   -0.538595
     4  H    0.157997
     5  H    0.145568
     6  H    0.143539
     7  H    0.314673
     8  H    0.408194
 Sum of Mulliken charges =   0.00000

 Dipole moment (field-independent basis, Debye):
    X=              0.4778    Y=              0.3664    Z=             -0.1866  Tot=              0.6304
 Quadrupole moment (field-independent basis, Debye-Ang):
   XX=            -16.8366   YY=            -18.9790   ZZ=            -18.6226
   XY=             -0.1227   XZ=              2.4751   YZ=              2.3139

  Exact polarizability:  28.115   1.405  21.644   1.514   1.121  20.457
 Approx polarizability:  34.702   3.491  28.744   1.539   0.940  27.152

                      1                      2                      3
                      A                      A                      A
 Frequencies --    273.2731               325.5421               439.4940
 Red. masses --      1.1523                 1.1469                 2.8186
 Frc consts  --      0.0507                 0.0716                 0.3208
 IR Inten    --      1.2862               111.3356                 7.4259

                      4                      5                      6
                      A                      A                      A
 Frequencies --    858.9319               989.8472              1060.4926
 Red. masses --      3.6725                 1.1560                 4.6133
 Frc consts  --      1.5964                 0.6673                 3.0569
 IR Inten    --     45.0376                47.1994                28.3529

                      7                      8                      9
                      A                      A                      A
 Frequencies --   1169.3481              1238.0500              1392.8577
 Red. masses --      1.4419                 1.4937                 1.2301
 Frc consts  --      1.1617                 1.3489                 1.4060
 IR Inten    --      6.9756                27.7748                35.0482

                     10                     11                     12
                      A                      A                      A
 Frequencies --   1466.0244              1505.1198              1506.7057
 Red. masses --      1.1929                 1.0356                 1.0963
 Frc consts  --      1.5106                 1.3822                 1.4663
 IR Inten    --      0.1585                 4.1517                 3.6634

                     13                     14                     15
                      A                      A                      A
 Frequencies --   1546.5099              3017.1200              3094.5575
 Red. masses --      1.0442                 1.0440                 1.0916
 Frc consts  --      1.4715                 5.5996                 6.1593
 IR Inten    --      3.7824                51.0131                35.3069

                     16                     17                     18
                      A                      A                      A
 Frequencies --   3131.7406              3448.0067              3742.0218
 Red. masses --      1.1031                 1.0758                 1.0683
 Frc consts  --      6.3741                 7.5353                 8.8138
 IR Inten    --     28.2174                 3.3769                25.5131

 - Thermochemistry -
 -------------------
 Temperature     0.001 Kelvin.  Pressure   1.00000 Atm.
 Atom     1 has atomic number  6 and mass  12.00000

 Molecular mass:    47.03711 amu.
 Principal axes and moments of inertia in atomic units:
                           1         2         3
     Eigenvalues --    46.35299 181.99638 207.43520
           X            0.99936  -0.02796   0.02241
           Y            0.02488   0.99151   0.12759
           Z           -0.02579  -0.12695   0.99157
 This molecule is an asymmetric top.
 Rotational symmetry number  1.
 Rotational temperatures (Kelvin)      1.86857     0.47591     0.41755
 Rotational constants (GHZ):          38.93473     9.91636     8.70027
 Zero-point vibrational energy     180669.9 (Joules/Mol)
                                   43.18113 (Kcal/Mol)
 Vibrational temperatures:    393.18   468.38   632.33  1235.81  1424.17
          (Kelvin)           1525.81  1682.43  1781.28  2004.01  2109.28
                             2165.53  2167.81  2225.08  4340.96  4452.38
                             4505.88  4960.91  5383.93

 Zero-point correction=                           0.068814 (Hartree/Particle)
 Thermal correction to Energy=                    0.068814
 Thermal correction to Enthalpy=                  0.068814
 Thermal correction to Gibbs Free Energy=         0.068814
 Sum of electronic and zero-point Energies=           -170.949776
 Sum of electronic and thermal Energies=              -170.949776
 Sum of electronic and thermal Enthalpies=            -170.949776
 Sum of electronic and thermal Free Energies=         -170.949776

                     E (Thermal)             CV                S
                      KCal/Mol        Cal/Mol-Kelvin    Cal/Mol-Kelvin
 Total                   43.181              5.962            -40.642
 Electronic               0.000              0.000              0.000
 Translational            0.000              2.981            -25.154
 Rotational               0.000              2.981            -15.488
 Vibrational             43.181              0.000              0.000

 Optimization completed.
    -- Stationary point found.
 Normal termination of Gaussian 16 at Mon Oct 14 02:25:47 2019.
