 Gaussian 16, Revision A.03,
 Gaussian 16:  ES64L-G16RevA.03 25-Dec-2016

 --------------------------------------------------------------
 #P opt freq b3lyp/6-31g(d) geom=connectivity temperature=0.001
 --------------------------------------------------------------

 -------------------
 Title Card Required
 -------------------
 Symbolic Z-matrix:
 Charge =  1 Multiplicity = 1

 SCF Done:  E(RB3LYP) =  -171.350996977     A.U. after   12 cycles
 SCF Done:  E(RB3LYP) =  -171.357677103     A.U. after   12 cycles
 SCF Done:  E(RB3LYP) =  -171.358761648     A.U. after   11 cycles
 SCF Done:  E(RB3LYP) =  -171.359421725     A.U. after   11 cycles
 SCF Done:  E(RB3LYP) =  -171.359761184     A.U. after   11 cycles
 SCF Done:  E(RB3LYP) =  -171.359903404     A.U. after   10 cycles
 SCF Done:  E(RB3LYP) =  -171.360088467     A.U. after   11 cycles
 SCF Done:  E(RB3LYP) =  -171.360197770     A.U. after   11 cycles
 SCF Done:  E(RB3LYP) =  -171.360434671     A.U. after   11 cycles
 SCF Done:  E(RB3LYP) =  -171.361087644     A.U. after   12 cycles
 SCF Done:  E(RB3LYP) =  -171.361640070     A.U. after   10 cycles
 SCF Done:  E(RB3LYP) =  -171.361861150     A.U. after   10 cycles
 SCF Done:  E(RB3LYP) =  -171.361878346     A.U. after    8 cycles
 SCF Done:  E(RB3LYP) =  -171.361882036     A.U. after    8 cycles
 SCF Done:  E(RB3LYP) =  -171.361882224     A.U. after    7 cycles
 Optimization completed.
    -- Stationary point found.
 Normal termination of Gaussian 16 at Mon Oct 14 02:25:57 2019.

 --------------------------------------------------------------------
 #P Geom=AllCheck Guess=TCheck SCRF=Check GenChk RB3LYP/6-31G(d) Freq
 --------------------------------------------------------------------

 Structure from the checkpoint file:  "8_p.chk"
 -------------------
 Title Card Required
 -------------------
 Charge =  1 Multiplicity = 1

                         Standard orientation:
 ---------------------------------------------------------------------
 Center     Atomic      Atomic             Coordinates (Angstroms)
 Number     Number       Type             X           Y           Z
 ---------------------------------------------------------------------
      1          6           0        1.216157   -0.263501    0.023330
      2          7           0       -0.064469    0.519024   -0.048213
      3          8           0       -1.230763   -0.262861    0.111818
      4          1           0        1.255212   -0.939120   -0.832760
      5          1           0        2.045548    0.447276   -0.014925
      6          1           0        1.210324   -0.814978    0.963450
      7          1           0       -0.130328    1.179621    0.737394
      8          1           0       -1.245976   -0.896604   -0.635610
      9          1           0       -0.134327    1.074529   -0.914579
 ---------------------------------------------------------------------

 SCF Done:  E(RB3LYP) =  -171.361882224     A.U. after    1 cycles

 The electronic state is 1-A.
 Alpha  occ. eigenvalues --  -19.44493 -14.74054 -10.45694  -1.36122  -1.14481
 Alpha  occ. eigenvalues --   -0.95026  -0.85419  -0.79457  -0.74814  -0.65662
 Alpha  occ. eigenvalues --   -0.64046  -0.62243  -0.55462
 Alpha virt. eigenvalues --   -0.18549  -0.18160  -0.12745  -0.10257  -0.08340
 Alpha virt. eigenvalues --   -0.05456  -0.03869  -0.03835   0.29056   0.30590
 Alpha virt. eigenvalues --    0.32291   0.37863   0.47541   0.48943   0.56310

 Mulliken charges:
               1
     1  C   -0.368280
     2  N   -0.340819
     3  O   -0.419830
     4  H    0.246788
     5  H    0.253238
     6  H    0.271047
     7  H    0.455121
     8  H    0.465284
     9  H    0.437451
 Sum of Mulliken charges =   1.00000

 Dipole moment (field-independent basis, Debye):
    X=              1.4907    Y=              1.3458    Z=             -1.5418  Tot=              2.5319
 Quadrupole moment (field-independent basis, Debye-Ang):
   XX=            -14.4121   YY=            -12.0571   ZZ=            -14.2804
   XY=              0.7445   XZ=              2.0446   YZ=              1.3632

  Exact polarizability:  24.782   1.933  20.923   0.021   0.937  19.391
 Approx polarizability:  31.280   3.698  27.454  -0.783   1.341  25.841

                      1                      2                      3
                      A                      A                      A
 Frequencies --    253.4991               312.9171               419.8792
 Red. masses --      1.0857                 1.1579                 3.0159
 Frc consts  --      0.0411                 0.0668                 0.3133
 IR Inten    --      8.5451               170.9498                 7.9685

                      4                      5                      6
                      A                      A                      A
 Frequencies --    876.7546               879.1239              1028.1784
 Red. masses --      2.3107                 1.3123                 6.9740
 Frc consts  --      1.0465                 0.5976                 4.3438
 IR Inten    --      4.6893                17.8350                 7.5619

                      7                      8                      9
                      A                      A                      A
 Frequencies --   1166.2933              1200.6467              1360.7256
 Red. masses --      1.3564                 1.3948                 1.1745
 Frc consts  --      1.0870                 1.1847                 1.2813
 IR Inten    --     49.3229                 2.2811                18.5056

                     10                     11                     12
                      A                      A                      A
 Frequencies --   1449.9305              1463.3108              1503.0543
 Red. masses --      1.2110                 1.1282                 1.0304
 Frc consts  --      1.5000                 1.4233                 1.3715
 IR Inten    --     36.4269                 0.7564                25.2252

                     13                     14                     15
                      A                      A                      A
 Frequencies --   1517.6623              1542.0087              1694.6149
 Red. masses --      1.0528                 1.1678                 1.0620
 Frc consts  --      1.4288                 1.6361                 1.7969
 IR Inten    --     32.0282                18.0303                49.6810

                     16                     17                     18
                      A                      A                      A
 Frequencies --   3097.9392              3194.5006              3218.8509
 Red. masses --      1.0301                 1.1097                 1.1116
 Frc consts  --      5.8246                 6.6720                 6.7860
 IR Inten    --      1.2770                 2.2255                 3.1846

                     19                     20                     21
                      A                      A                      A
 Frequencies --   3370.2528              3449.2054              3650.9371
 Red. masses --      1.0602                 1.0936                 1.0687
 Frc consts  --      7.0953                 7.6659                 8.3930
 IR Inten    --     50.6031               109.5097               103.7077

 - Thermochemistry -
 -------------------
 Temperature     0.001 Kelvin.  Pressure   1.00000 Atm.
 Atom     1 has atomic number  6 and mass  12.00000

 Molecular mass:    48.04494 amu.
 Principal axes and moments of inertia in atomic units:
                           1         2         3
     Eigenvalues --    51.73859 194.17030 220.05385
           X            0.99977  -0.01189   0.01764
           Y            0.01080   0.99813   0.06014
           Z           -0.01833  -0.05993   0.99803
 This molecule is an asymmetric top.
 Rotational symmetry number  1.
 Rotational temperatures (Kelvin)      1.67407     0.44607     0.39360
 Rotational constants (GHZ):          34.88192     9.29463     8.20136
 Zero-point vibrational energy     219217.4 (Joules/Mol)
                                   52.39421 (Kcal/Mol)
 Vibrational temperatures:    364.73   450.22   604.11  1261.45  1264.86
          (Kelvin)           1479.32  1678.04  1727.46  1957.78  2086.13
                             2105.38  2162.56  2183.58  2218.61  2438.17
                             4457.24  4596.17  4631.21  4849.04  4962.64
                             5252.88

 Zero-point correction=                           0.083495 (Hartree/Particle)
 Thermal correction to Energy=                    0.083496
 Thermal correction to Enthalpy=                  0.083496
 Thermal correction to Gibbs Free Energy=         0.083496
 Sum of electronic and zero-point Energies=           -171.278387
 Sum of electronic and thermal Energies=              -171.278387
 Sum of electronic and thermal Enthalpies=            -171.278387
 Sum of electronic and thermal Free Energies=         -171.278387

                     E (Thermal)             CV                S
                      KCal/Mol        Cal/Mol-Kelvin    Cal/Mol-Kelvin
 Total                   52.394              5.962            -40.346
 Electronic               0.000              0.000              0.000
 Translational            0.000              2.981            -25.091
 Rotational               0.000              2.981            -15.256
 Vibrational             52.394              0.000              0.000

 Optimization completed.
    -- Stationary point found.
 Normal termination of Gaussian 16 at Mon Oct 14 02:26:02 2019.
