 Gaussian 16, Revision A.03,
 Gaussian 16:  ES64L-G16RevA.03 25-Dec-2016

 --------------------------------------------------------------
 #P opt freq b3lyp/6-31g(d) geom=connectivity temperature=0.001
 --------------------------------------------------------------

 -------------------
 Title Card Required
 -------------------
 Symbolic Z-matrix:
 Charge =  0 Multiplicity = 1

 SCF Done:  E(RB3LYP) =  -288.919648229     A.U. after   12 cycles
 SCF Done:  E(RB3LYP) =  -288.933217233     A.U. after   12 cycles
 SCF Done:  E(RB3LYP) =  -288.941576831     A.U. after   13 cycles
 SCF Done:  E(RB3LYP) =  -288.952667803     A.U. after   13 cycles
 SCF Done:  E(RB3LYP) =  -288.959861237     A.U. after   13 cycles
 SCF Done:  E(RB3LYP) =  -288.964883468     A.U. after   11 cycles
 SCF Done:  E(RB3LYP) =  -288.966995642     A.U. after   12 cycles
 SCF Done:  E(RB3LYP) =  -288.967451728     A.U. after   11 cycles
 SCF Done:  E(RB3LYP) =  -288.967632836     A.U. after   10 cycles
 SCF Done:  E(RB3LYP) =  -288.967749216     A.U. after   11 cycles
 SCF Done:  E(RB3LYP) =  -288.967775888     A.U. after    9 cycles
 SCF Done:  E(RB3LYP) =  -288.967779012     A.U. after    8 cycles
 SCF Done:  E(RB3LYP) =  -288.967779416     A.U. after    7 cycles
 Optimization completed.
    -- Stationary point found.
 Normal termination of Gaussian 16 at Mon Oct 14 02:26:18 2019.

 --------------------------------------------------------------------
 #P Geom=AllCheck Guess=TCheck SCRF=Check GenChk RB3LYP/6-31G(d) Freq
 --------------------------------------------------------------------

 Structure from the checkpoint file:  "9.chk"
 -------------------
 Title Card Required
 -------------------
 Charge =  0 Multiplicity = 1

                         Standard orientation:
 ---------------------------------------------------------------------
 Center     Atomic      Atomic             Coordinates (Angstroms)
 Number     Number       Type             X           Y           Z
 ---------------------------------------------------------------------
      1          6           0       -0.384497    1.499223    0.402855
      2          6           0       -0.392071    0.014296    0.014718
      3          7           0        0.795211   -0.239776   -0.841984
      4          8           0        1.998040   -0.112627   -0.043040
      5          6           0       -0.406185   -0.873689    1.272591
      6          6           0       -1.601379   -0.298727   -0.880525
      7          1           0       -1.275192    1.750686    0.989109
      8          1           0        0.497955    1.733662    1.006016
      9          1           0       -0.370195    2.129672   -0.493218
     10          1           0        0.792323   -1.236992   -1.070840
     11          1           0        2.470316    0.596704   -0.505258
     12          1           0       -0.447447   -1.936321    0.999946
     13          1           0        0.496219   -0.709063    1.867751
     14          1           0       -1.279645   -0.655366    1.898173
     15          1           0       -2.534706   -0.105066   -0.341042
     16          1           0       -1.587044    0.318264   -1.784936
     17          1           0       -1.608591   -1.353349   -1.185332
 ---------------------------------------------------------------------

 SCF Done:  E(RB3LYP) =  -288.967779416     A.U. after    1 cycles

 The electronic state is 1-A.
 Alpha  occ. eigenvalues --  -19.16246 -14.36161 -10.21776 -10.17519 -10.16762
 Alpha  occ. eigenvalues --  -10.16682  -1.04286  -0.84989  -0.74247  -0.68481
 Alpha  occ. eigenvalues --   -0.68109  -0.55125  -0.49561  -0.47171  -0.44826
 Alpha  occ. eigenvalues --   -0.42510  -0.41793  -0.38368  -0.37571  -0.36660
 Alpha  occ. eigenvalues --   -0.36149  -0.33189  -0.32598  -0.27743  -0.23419
 Alpha virt. eigenvalues --    0.07348   0.08185   0.12780   0.13014   0.14694
 Alpha virt. eigenvalues --    0.15799   0.16545   0.17137   0.18134   0.20119
 Alpha virt. eigenvalues --    0.21187   0.22201   0.22758   0.24555   0.25763

 Mulliken charges:
               1
     1  C   -0.443590
     2  C    0.204490
     3  N   -0.350851
     4  O   -0.537203
     5  C   -0.446526
     6  C   -0.451423
     7  H    0.138436
     8  H    0.152022
     9  H    0.144432
    10  H    0.306397
    11  H    0.409370
    12  H    0.128533
    13  H    0.169948
    14  H    0.137333
    15  H    0.147914
    16  H    0.156305
    17  H    0.134414
 Sum of Mulliken charges =  -0.00000

 Dipole moment (field-independent basis, Debye):
    X=             -0.4700    Y=              0.1526    Z=             -0.2933  Tot=              0.5746
 Quadrupole moment (field-independent basis, Debye-Ang):
   XX=            -37.5069   YY=            -37.0946   ZZ=            -39.9663
   XY=              2.1947   XZ=             -1.5945   YZ=              0.9392

  Exact polarizability:  58.907   1.937  53.433   0.348   0.585  51.144
 Approx polarizability:  79.251   2.451  71.615   0.757   1.344  70.079

                      1                      2                      3
                      A                      A                      A
 Frequencies --    144.3877               210.1517               255.3201
 Red. masses --      2.7116                 1.1075                 1.7793
 Frc consts  --      0.0333                 0.0288                 0.0683
 IR Inten    --      0.1729                 0.2035                 2.9143

                      4                      5                      6
                      A                      A                      A
 Frequencies --    256.1906               267.0160               331.5668
 Red. masses --      1.0537                 1.4168                 1.6097
 Frc consts  --      0.0407                 0.0595                 0.1043
 IR Inten    --      0.6965                 0.3193                27.1642

                      7                      8                      9
                      A                      A                      A
 Frequencies --    351.2202               358.0829               409.6788
 Red. masses --      2.0016                 1.6487                 2.2948
 Frc consts  --      0.1455                 0.1246                 0.2269
 IR Inten    --     36.3298                25.1505                 0.5306

                     10                     11                     12
                      A                      A                      A
 Frequencies --    460.0709               535.7296               748.7400
 Red. masses --      2.2277                 3.3071                 3.9238
 Frc consts  --      0.2778                 0.5592                 1.2960
 IR Inten    --     27.4875                 4.1207                 2.8686

                     13                     14                     15
                      A                      A                      A
 Frequencies --    865.2208               928.7437               936.2656
 Red. masses --      2.7753                 1.7207                 1.8623
 Frc consts  --      1.2241                 0.8745                 0.9618
 IR Inten    --     29.3499                 1.2178                 7.2159

                     16                     17                     18
                      A                      A                      A
 Frequencies --    966.3474               972.6662              1012.5400
 Red. masses --      2.4472                 1.2627                 1.4981
 Frc consts  --      1.3464                 0.7039                 0.9049
 IR Inten    --     20.6153                 2.3233                33.2716

                     19                     20                     21
                      A                      A                      A
 Frequencies --   1060.9953              1096.3788              1254.0688
 Red. masses --      1.4266                 1.3700                 2.2447
 Frc consts  --      0.9462                 0.9703                 2.0800
 IR Inten    --      2.1918                32.3774                17.6164

                     22                     23                     24
                      A                      A                      A
 Frequencies --   1272.9683              1299.9448              1379.7331
 Red. masses --      2.6911                 2.3957                 1.2578
 Frc consts  --      2.5693                 2.3853                 1.4108
 IR Inten    --     23.6949                15.1668                46.1873

                     25                     26                     27
                      A                      A                      A
 Frequencies --   1420.2517              1422.7222              1449.6934
 Red. masses --      1.2743                 1.2627                 1.2310
 Frc consts  --      1.5145                 1.5059                 1.5242
 IR Inten    --     11.6536                 8.4801                 2.7961

                     28                     29                     30
                      A                      A                      A
 Frequencies --   1500.6176              1506.2865              1517.6405
 Red. masses --      1.0739                 1.0543                 1.0481
 Frc consts  --      1.4248                 1.4094                 1.4224
 IR Inten    --      1.4813                 0.1064                 0.1712

                     31                     32                     33
                      A                      A                      A
 Frequencies --   1521.8092              1529.2883              1541.5377
 Red. masses --      1.0474                 1.0577                 1.0881
 Frc consts  --      1.4292                 1.4575                 1.5234
 IR Inten    --      0.1023                 5.0080                 4.3113

                     34                     35                     36
                      A                      A                      A
 Frequencies --   1552.0942              3040.1282              3044.9050
 Red. masses --      1.0583                 1.0387                 1.0376
 Frc consts  --      1.5021                 5.6564                 5.6678
 IR Inten    --      7.7245                16.6883                41.4590

                     37                     38                     39
                      A                      A                      A
 Frequencies --   3055.7157              3101.4957              3109.7147
 Red. masses --      1.0363                 1.1003                 1.0982
 Frc consts  --      5.7013                 6.2359                 6.2570
 IR Inten    --      8.9327                11.7414                48.2619

                     40                     41                     42
                      A                      A                      A
 Frequencies --   3121.4918              3131.4715              3132.9246
 Red. masses --      1.1028                 1.1027                 1.1020
 Frc consts  --      6.3311                 6.3712                 6.3726
 IR Inten    --     15.4730                37.7436                15.4945

                     43                     44                     45
                      A                      A                      A
 Frequencies --   3142.1911              3428.3182              3749.6966
 Red. masses --      1.0997                 1.0751                 1.0684
 Frc consts  --      6.3970                 7.4452                 8.8505
 IR Inten    --     24.2561                 4.6663                28.9148

 - Thermochemistry -
 -------------------
 Temperature     0.001 Kelvin.  Pressure   1.00000 Atm.
 Atom     1 has atomic number  6 and mass  12.00000

 Molecular mass:    89.08406 amu.
 Principal axes and moments of inertia in atomic units:
                           1         2         3
     Eigenvalues --   409.31256 673.38684 674.38968
           X            0.99970   0.01934   0.01526
           Y           -0.02144   0.98800   0.15295
           Z           -0.01212  -0.15323   0.98812
 This molecule is an asymmetric top.
 Rotational symmetry number  1.
 Rotational temperatures (Kelvin)      0.21161     0.12862     0.12843
 Rotational constants (GHZ):           4.40920     2.68010     2.67611
 Zero-point vibrational energy     403105.8 (Joules/Mol)
                                   96.34459 (Kcal/Mol)
 Vibrational temperatures:    207.74   302.36   367.35   368.60   384.18
          (Kelvin)            477.05   505.33   515.20   589.44   661.94
                              770.80  1077.27  1244.86  1336.26  1347.08
                             1390.36  1399.45  1456.82  1526.54  1577.44
                             1804.33  1831.52  1870.33  1985.13  2043.43
                             2046.98  2085.79  2159.05  2167.21  2183.55
                             2189.54  2200.30  2217.93  2233.12  4374.07
                             4380.94  4396.49  4462.36  4474.19  4491.13
                             4505.49  4507.58  4520.91  4932.59  5394.98

 Zero-point correction=                           0.153535 (Hartree/Particle)
 Thermal correction to Energy=                    0.153535
 Thermal correction to Enthalpy=                  0.153535
 Thermal correction to Gibbs Free Energy=         0.153535
 Sum of electronic and zero-point Energies=           -288.814245
 Sum of electronic and thermal Energies=              -288.814245
 Sum of electronic and thermal Enthalpies=            -288.814245
 Sum of electronic and thermal Free Energies=         -288.814244

                     E (Thermal)             CV                S
                      KCal/Mol        Cal/Mol-Kelvin    Cal/Mol-Kelvin
 Total                   96.345              5.962            -34.102
 Electronic               0.000              0.000              0.000
 Translational            0.000              2.981            -23.250
 Rotational               0.000              2.981            -10.852
 Vibrational             96.345              0.000              0.000

                           ! Non-Optimized Parameters !
 Normal termination of Gaussian 16 at Mon Oct 14 02:26:32 2019.
