 Gaussian 16, Revision A.03,
 Gaussian 16:  ES64L-G16RevA.03 25-Dec-2016

 --------------------------------------------------------------
 #P opt freq b3lyp/6-31g(d) geom=connectivity temperature=0.001
 --------------------------------------------------------------

 -------------------
 Title Card Required
 -------------------
 Symbolic Z-matrix:
 Charge =  1 Multiplicity = 1

 SCF Done:  E(RB3LYP) =  -289.309095050     A.U. after   13 cycles
 SCF Done:  E(RB3LYP) =  -289.319805576     A.U. after   11 cycles
 SCF Done:  E(RB3LYP) =  -289.323597907     A.U. after   11 cycles
 SCF Done:  E(RB3LYP) =  -289.325616622     A.U. after   11 cycles
 SCF Done:  E(RB3LYP) =  -289.326096002     A.U. after   10 cycles
 SCF Done:  E(RB3LYP) =  -289.326484607     A.U. after   10 cycles
 SCF Done:  E(RB3LYP) =  -289.326813005     A.U. after   11 cycles
 SCF Done:  E(RB3LYP) =  -289.326844266     A.U. after   10 cycles
 SCF Done:  E(RB3LYP) =  -289.326849180     A.U. after    9 cycles
 SCF Done:  E(RB3LYP) =  -289.326849944     A.U. after    8 cycles
 SCF Done:  E(RB3LYP) =  -289.326849988     A.U. after    7 cycles
 Optimization completed.
    -- Stationary point found.
 Normal termination of Gaussian 16 at Mon Oct 14 02:27:38 2019.

 --------------------------------------------------------------------
 #P Geom=AllCheck Guess=TCheck SCRF=Check GenChk RB3LYP/6-31G(d) Freq
 --------------------------------------------------------------------

 Structure from the checkpoint file:  "9_p.chk"
 -------------------
 Title Card Required
 -------------------
 Charge =  1 Multiplicity = 1

                         Standard orientation:
 ---------------------------------------------------------------------
 Center     Atomic      Atomic             Coordinates (Angstroms)
 Number     Number       Type             X           Y           Z
 ---------------------------------------------------------------------
      1          6           0       -0.411769    1.545432   -0.242360
      2          6           0       -0.464039    0.043258    0.045047
      3          7           0        0.839759   -0.579131   -0.536114
      4          8           0        2.058734   -0.117189    0.004121
      5          6           0       -0.483044   -0.277747    1.539160
      6          6           0       -1.589637   -0.655277   -0.726917
      7          1           0       -1.359806    1.992390    0.069557
      8          1           0        0.372472    2.054901    0.328764
      9          1           0       -0.290846    1.762063   -1.310786
     10          1           0        0.864510   -1.584504   -0.324752
     11          1           0        2.095165    0.839713   -0.196565
     12          1           0       -0.520173   -1.357733    1.721636
     13          1           0        0.385104    0.139063    2.056121
     14          1           0       -1.382596    0.160920    1.979893
     15          1           0       -2.548425   -0.283502   -0.354609
     16          1           0       -1.553276   -0.442129   -1.801785
     17          1           0       -1.582916   -1.740759   -0.574591
     18          1           0        0.863536   -0.482985   -1.562627
 ---------------------------------------------------------------------

 SCF Done:  E(RB3LYP) =  -289.326849988     A.U. after    1 cycles

 The electronic state is 1-A.
 Alpha  occ. eigenvalues --  -19.42062 -14.70148 -10.44674 -10.36526 -10.36322
 Alpha  occ. eigenvalues --  -10.35279  -1.33299  -1.11673  -0.99199  -0.88351
 Alpha  occ. eigenvalues --   -0.87860  -0.81500  -0.79128  -0.75836  -0.68565
 Alpha  occ. eigenvalues --   -0.63573  -0.62081  -0.60844  -0.57342  -0.56833
 Alpha  occ. eigenvalues --   -0.56162  -0.55146  -0.53060  -0.52966  -0.52213
 Alpha virt. eigenvalues --   -0.15942  -0.15246  -0.10677  -0.08618  -0.08274
 Alpha virt. eigenvalues --   -0.04289  -0.01810  -0.01512  -0.00453   0.00224
 Alpha virt. eigenvalues --    0.01595   0.03028   0.03322   0.03442   0.05238

 Mulliken charges:
               1
     1  C   -0.491052
     2  C    0.097981
     3  N   -0.342846
     4  O   -0.431241
     5  C   -0.456753
     6  C   -0.481027
     7  H    0.229863
     8  H    0.184821
     9  H    0.182501
    10  H    0.432510
    11  H    0.460755
    12  H    0.182451
    13  H    0.201756
    14  H    0.214897
    15  H    0.226845
    16  H    0.185144
    17  H    0.188015
    18  H    0.415380
 Sum of Mulliken charges =   1.00000

 Dipole moment (field-independent basis, Debye):
    X=              0.6639    Y=             -0.4047    Z=             -2.1804  Tot=              2.3149
 Quadrupole moment (field-independent basis, Debye-Ang):
   XX=            -30.6692   YY=            -29.2511   ZZ=            -31.4138
   XY=              1.2393   XZ=             -3.0146   YZ=              1.2053

  Exact polarizability:  55.964   1.622  51.984   1.141  -0.063  50.528
 Approx polarizability:  76.958   1.355  70.791   1.853   0.527  68.127

                      1                      2                      3
                      A                      A                      A
 Frequencies --    118.3375               210.9764               247.8601
 Red. masses --      2.2715                 1.0679                 2.4104
 Frc consts  --      0.0187                 0.0280                 0.0872
 IR Inten    --      6.6541                 0.9106                 1.0512

                      4                      5                      6
                      A                      A                      A
 Frequencies --    257.1534               262.9030               312.8407
 Red. masses --      1.0827                 1.1551                 1.2609
 Frc consts  --      0.0422                 0.0470                 0.0727
 IR Inten    --      1.0864                24.8482               105.6394

                      7                      8                      9
                      A                      A                      A
 Frequencies --    332.1755               351.3372               402.3030
 Red. masses --      1.9679                 2.3188                 2.3716
 Frc consts  --      0.1279                 0.1686                 0.2262
 IR Inten    --     26.7086                 6.7980                 4.2588

                     10                     11                     12
                      A                      A                      A
 Frequencies --    423.3566               510.9107               695.4387
 Red. masses --      1.9984                 2.8004                 3.8359
 Frc consts  --      0.2110                 0.4307                 1.0930
 IR Inten    --     14.3020                 9.6478                 2.1749

                     13                     14                     15
                      A                      A                      A
 Frequencies --    805.1190               903.6560               943.2198
 Red. masses --      2.9349                 1.5048                 1.5781
 Frc consts  --      1.1209                 0.7240                 0.8272
 IR Inten    --      3.4768                12.0558                 1.0073

                     16                     17                     18
                      A                      A                      A
 Frequencies --    946.7348               988.1415              1026.8518
 Red. masses --      1.5154                 1.2125                 4.1152
 Frc consts  --      0.8003                 0.6975                 2.5566
 IR Inten    --      0.1002                 0.0917                13.3130

                     19                     20                     21
                      A                      A                      A
 Frequencies --   1065.1490              1079.3623              1204.4640
 Red. masses --      1.6475                 1.4894                 2.0047
 Frc consts  --      1.1012                 1.0224                 1.7135
 IR Inten    --     13.0661                 1.4857                47.9466

                     22                     23                     24
                      A                      A                      A
 Frequencies --   1251.5365              1279.7554              1352.6432
 Red. masses --      1.4089                 2.6291                 1.6560
 Frc consts  --      1.3002                 2.5369                 1.7852
 IR Inten    --     30.4475                 8.6647                26.4490

                     25                     26                     27
                      A                      A                      A
 Frequencies --   1429.5778              1440.5017              1442.2044
 Red. masses --      1.2190                 1.2253                 1.2328
 Frc consts  --      1.4678                 1.4980                 1.5107
 IR Inten    --     70.8505                20.1330                23.2553

                     28                     29                     30
                      A                      A                      A
 Frequencies --   1476.1091              1500.9732              1504.0928
 Red. masses --      1.2032                 1.0464                 1.0460
 Frc consts  --      1.5447                 1.3890                 1.3942
 IR Inten    --      4.9863                 0.1176                 0.1970

                     31                     32                     33
                      A                      A                      A
 Frequencies --   1509.3116              1521.5428              1536.2328
 Red. masses --      1.0507                 1.1034                 1.0611
 Frc consts  --      1.4102                 1.5051                 1.4755
 IR Inten    --      0.9978                 4.8532                21.7569

                     34                     35                     36
                      A                      A                      A
 Frequencies --   1541.4738              1548.8124              1676.0433
 Red. masses --      1.0737                 1.0961                 1.0613
 Frc consts  --      1.5032                 1.5492                 1.7566
 IR Inten    --     12.3955                28.5775                52.6774

                     37                     38                     39
                      A                      A                      A
 Frequencies --   3054.2012              3057.3705              3070.2673
 Red. masses --      1.0387                 1.0387                 1.0395
 Frc consts  --      5.7088                 5.7207                 5.7732
 IR Inten    --      4.7831                 5.8691                 2.7045

                     40                     41                     42
                      A                      A                      A
 Frequencies --   3123.5668              3125.6510              3142.6775
 Red. masses --      1.1048                 1.1046                 1.1003
 Frc consts  --      6.3507                 6.3583                 6.4028
 IR Inten    --      6.0814                12.0401                 4.7847

                     43                     44                     45
                      A                      A                      A
 Frequencies --   3147.7586              3151.7974              3162.7744
 Red. masses --      1.0994                 1.0989                 1.1035
 Frc consts  --      6.4183                 6.4316                 6.5038
 IR Inten    --      2.8598                 1.5951                 1.7786

                     46                     47                     48
                      A                      A                      A
 Frequencies --   3364.7230              3457.7984              3669.4152
 Red. masses --      1.0586                 1.0934                 1.0678
 Frc consts  --      7.0615                 7.7024                 8.4708
 IR Inten    --     28.0414                59.9408                82.5322

 - Thermochemistry -
 -------------------
 Temperature     0.001 Kelvin.  Pressure   1.00000 Atm.
 Atom     1 has atomic number  6 and mass  12.00000

 Molecular mass:    90.09189 amu.
 Principal axes and moments of inertia in atomic units:
                           1         2         3
     Eigenvalues --   423.55295 699.74407 703.00458
           X            0.99961   0.02733  -0.00520
           Y           -0.02776   0.96760  -0.25094
           Z           -0.00183   0.25099   0.96799
 This molecule is an asymmetric top.
 Rotational symmetry number  1.
 Rotational temperatures (Kelvin)      0.20449     0.12378     0.12321
 Rotational constants (GHZ):           4.26096     2.57914     2.56718
 Zero-point vibrational energy     440387.9 (Joules/Mol)
                                  105.25523 (Kcal/Mol)
 Vibrational temperatures:    170.26   303.55   356.62   369.99   378.26
          (Kelvin)            450.11   477.93   505.50   578.82   609.12
                              735.09  1000.58  1158.39  1300.16  1357.08
                             1362.14  1421.72  1477.41  1532.51  1552.96
                             1732.96  1800.68  1841.28  1946.15  2056.84
                             2072.56  2075.01  2123.79  2159.57  2164.05
                             2171.56  2189.16  2210.30  2217.84  2228.40
                             2411.45  4394.31  4398.87  4417.43  4494.12
                             4497.11  4521.61  4528.92  4534.73  4550.53
                             4841.09  4975.00  5279.47

 Zero-point correction=                           0.167735 (Hartree/Particle)
 Thermal correction to Energy=                    0.167735
 Thermal correction to Enthalpy=                  0.167735
 Thermal correction to Gibbs Free Energy=         0.167735
 Sum of electronic and zero-point Energies=           -289.159115
 Sum of electronic and thermal Energies=              -289.159115
 Sum of electronic and thermal Enthalpies=            -289.159115
 Sum of electronic and thermal Free Energies=         -289.159115

                     E (Thermal)             CV                S
                      KCal/Mol        Cal/Mol-Kelvin    Cal/Mol-Kelvin
 Total                  105.255              5.962            -33.956
 Electronic               0.000              0.000              0.000
 Translational            0.000              2.981            -23.217
 Rotational               0.000              2.981            -10.739
 Vibrational            105.255              0.000              0.000

 Optimization completed.
    -- Stationary point found.
 Normal termination of Gaussian 16 at Mon Oct 14 02:27:53 2019.
