 Gaussian 16, Revision A.03,
 Gaussian 16:  ES64L-G16RevA.03 25-Dec-2016

 --------------------------------------------------------------
 #P opt freq b3lyp/6-31g(d) geom=connectivity temperature=0.001
 --------------------------------------------------------------

 -------------------
 Title Card Required
 -------------------
 Symbolic Z-matrix:
 Charge =  1 Multiplicity = 1

 SCF Done:  E(RB3LYP) =  -56.8910494790     A.U. after    8 cycles
 SCF Done:  E(RB3LYP) =  -56.8938883063     A.U. after    8 cycles
 SCF Done:  E(RB3LYP) =  -56.8938893685     A.U. after    5 cycles
 Optimization completed.
    -- Stationary point found.
 Normal termination of Gaussian 16 at Sun Oct 13 20:12:52 2019.

 --------------------------------------------------------------------
 #P Geom=AllCheck Guess=TCheck SCRF=Check GenChk RB3LYP/6-31G(d) Freq
 --------------------------------------------------------------------

 Structure from the checkpoint file:  "ammonia_p.chk"
 -------------------
 Title Card Required
 -------------------
 Charge =  1 Multiplicity = 1

                         Standard orientation:
 ---------------------------------------------------------------------
 Center     Atomic      Atomic             Coordinates (Angstroms)
 Number     Number       Type             X           Y           Z
 ---------------------------------------------------------------------
      1          7           0        0.000000    0.000000    0.000000
      2          1           0        0.594347    0.594347    0.594347
      3          1           0       -0.594347   -0.594347    0.594347
      4          1           0       -0.594347    0.594347   -0.594347
      5          1           0        0.594347   -0.594347   -0.594347
 ---------------------------------------------------------------------

 SCF Done:  E(RB3LYP) =  -56.8938893685     A.U. after    1 cycles

 The electronic state is 1-A1.
 Alpha  occ. eigenvalues --  -14.71464  -1.24845  -0.82654  -0.82654  -0.82654
 Alpha virt. eigenvalues --   -0.21083  -0.12973  -0.12973  -0.12973   0.34077
 Alpha virt. eigenvalues --    0.34077   0.34077   0.57141   0.57141   0.57141
 Alpha virt. eigenvalues --    0.60087   0.99425   1.24922   1.24922   1.98401

 Mulliken charges:
               1
     1  N   -0.843631
     2  H    0.460908
     3  H    0.460908
     4  H    0.460908
     5  H    0.460908
 Sum of Mulliken charges =   1.00000

 Dipole moment (field-independent basis, Debye):
    X=             -0.0000    Y=             -0.0000    Z=             -0.0000  Tot=              0.0000
 Quadrupole moment (field-independent basis, Debye-Ang):
   XX=             -4.3719   YY=             -4.3719   ZZ=             -4.3719
   XY=              0.0000   XZ=             -0.0000   YZ=             -0.0000

  Exact polarizability:   7.177   0.000   7.177   0.000   0.000   7.177
 Approx polarizability:   8.626  -0.000   8.626  -0.000  -0.000   8.626

                      1                      2                      3
                     T2                     T2                     T2
 Frequencies --   1521.8791              1521.8791              1521.8791
 Red. masses --      1.1564                 1.1564                 1.1564
 Frc consts  --      1.5781                 1.5781                 1.5781
 IR Inten    --    188.3093               188.3093               188.3093

                      4                      5                      6
                      E                      E                     A1
 Frequencies --   1752.3776              1752.3776              3363.7240
 Red. masses --      1.0078                 1.0078                 1.0078
 Frc consts  --      1.8234                 1.8234                 6.7186
 IR Inten    --      0.0000                 0.0000                 0.0000

                      7                      8                      9
                     T2                     T2                     T2
 Frequencies --   3484.2269              3484.2269              3484.2269
 Red. masses --      1.0942                 1.0942                 1.0942
 Frc consts  --      7.8264                 7.8264                 7.8264
 IR Inten    --    198.7593               198.7593               198.7593

 - Thermochemistry -
 -------------------
 Temperature     0.001 Kelvin.  Pressure   1.00000 Atm.
 Atom     1 has atomic number  7 and mass  14.00307

 Molecular mass:    18.03437 amu.
 Principal axes and moments of inertia in atomic units:
                           1         2         3
     Eigenvalues --    10.17076  10.17076  10.17076
           X           -0.00207  -0.04729   0.99888
           Y            0.93545   0.35297   0.01865
           Z           -0.35345   0.93444   0.04351
 This molecule is a spherical top.
 Rotational symmetry number 12.
 Rotational temperatures (Kelvin)      8.51597     8.51597     8.51597
 Rotational constants (GHZ):         177.44405   177.44405   177.44405
 Zero-point vibrational energy     130912.1 (Joules/Mol)
                                   31.28875 (Kcal/Mol)
 Vibrational temperatures:   2189.64  2189.64  2189.64  2521.28  2521.28
          (Kelvin)           4839.65  5013.03  5013.03  5013.03

 Zero-point correction=                           0.049862 (Hartree/Particle)
 Thermal correction to Energy=                    0.049862
 Thermal correction to Enthalpy=                  0.049862
 Thermal correction to Gibbs Free Energy=         0.049862
 Sum of electronic and zero-point Energies=            -56.844028
 Sum of electronic and thermal Energies=               -56.844028
 Sum of electronic and thermal Enthalpies=             -56.844028
 Sum of electronic and thermal Free Energies=          -56.844027

                     E (Thermal)             CV                S
                      KCal/Mol        Cal/Mol-Kelvin    Cal/Mol-Kelvin
 Total                   31.289              5.962            -55.807
 Electronic               0.000              0.000              0.000
 Translational            0.000              2.981            -28.011
 Rotational               0.000              2.981            -27.795
 Vibrational             31.289              0.000              0.000

 Optimization completed.
    -- Stationary point found.
 Normal termination of Gaussian 16 at Sun Oct 13 20:13:33 2019.
