 Gaussian 16, Revision A.03,
 Gaussian 16:  ES64L-G16RevA.03 25-Dec-2016

 --------------------------------------------------------------
 #P opt freq b3lyp/6-31g(d) geom=connectivity temperature=0.001
 --------------------------------------------------------------

 -------------------
 Title Card Required
 -------------------
 Symbolic Z-matrix:
 Charge =  0 Multiplicity = 1

 SCF Done:  E(RB3LYP) =  -56.5466583002     A.U. after    9 cycles
 SCF Done:  E(RB3LYP) =  -56.5477504750     A.U. after    9 cycles
 SCF Done:  E(RB3LYP) =  -56.5479434817     A.U. after    9 cycles
 SCF Done:  E(RB3LYP) =  -56.5479477974     A.U. after    7 cycles
 Optimization completed.
    -- Stationary point found.
 Normal termination of Gaussian 16 at Sun Oct 13 20:09:18 2019.

 --------------------------------------------------------------------
 #P Geom=AllCheck Guess=TCheck SCRF=Check GenChk RB3LYP/6-31G(d) Freq
 --------------------------------------------------------------------

 Structure from the checkpoint file:  "ammonia.chk"
 -------------------
 Title Card Required
 -------------------
 Charge =  0 Multiplicity = 1

                         Standard orientation:
 ---------------------------------------------------------------------
 Center     Atomic      Atomic             Coordinates (Angstroms)
 Number     Number       Type             X           Y           Z
 ---------------------------------------------------------------------
      1          7           0        0.000000    0.000000    0.119357
      2          1           0        0.000000    0.938578   -0.278499
      3          1           0       -0.812832   -0.469289   -0.278499
      4          1           0        0.812832   -0.469289   -0.278499
 ---------------------------------------------------------------------

 SCF Done:  E(RB3LYP) =  -56.5479477974     A.U. after    1 cycles

 The electronic state is 1-A1.
 Alpha  occ. eigenvalues --  -14.30603  -0.84534  -0.45225  -0.45225  -0.25241
 Alpha virt. eigenvalues --    0.07859   0.16779   0.16779   0.68319   0.68319
 Alpha virt. eigenvalues --    0.72190   0.91513   0.91513   0.92232   1.15613
 Alpha virt. eigenvalues --    1.67544   1.67544   1.94052   2.40302   2.40302

 Mulliken charges:
               1
     1  N   -0.887661
     2  H    0.295887
     3  H    0.295887
     4  H    0.295887
 Sum of Mulliken charges =  -0.00000

 Dipole moment (field-independent basis, Debye):
    X=             -0.0000    Y=             -0.0000    Z=             -1.9122  Tot=              1.9122
 Quadrupole moment (field-independent basis, Debye-Ang):
   XX=             -6.1583   YY=             -6.1583   ZZ=             -8.7862
   XY=             -0.0000   XZ=              0.0000   YZ=             -0.0000

  Exact polarizability:   9.581  -0.000   9.581   0.000   0.000   5.755
 Approx polarizability:  11.477  -0.000  11.477   0.000  -0.000   6.635

                      1                      2                      3
                     A1                      E                      E
 Frequencies --   1131.8206              1726.7373              1726.7373
 Red. masses --      1.1797                 1.0642                 1.0642
 Frc consts  --      0.8904                 1.8695                 1.8695
 IR Inten    --    156.1783                15.3466                15.3465

                      4                      5                      6
                     A1                      E                      E
 Frequencies --   3436.7355              3568.4020              3568.4020
 Red. masses --      1.0274                 1.0886                 1.0886
 Frc consts  --      7.1497                 8.1671                 8.1671
 IR Inten    --      0.7799                 0.4526                 0.4525

 - Thermochemistry -
 -------------------
 Temperature     0.001 Kelvin.  Pressure   1.00000 Atm.
 Atom     1 has atomic number  7 and mass  14.00307

 Molecular mass:    17.02655 amu.
 Principal axes and moments of inertia in atomic units:
                           1         2         3
     Eigenvalues --     6.16127   6.16127   9.51140
           X           -0.11682   0.99315   0.00000
           Y            0.99315   0.11682   0.00000
           Z           -0.00000  -0.00000   1.00000
 This molecule is an oblate symmetric top.
 Rotational symmetry number  3.
 Rotational temperatures (Kelvin)     14.05781    14.05781     9.10633
 Rotational constants (GHZ):         292.91720   292.91720   189.74507
 Zero-point vibrational energy      90670.0 (Joules/Mol)
                                   21.67064 (Kcal/Mol)
 Vibrational temperatures:   1628.44  2484.39  2484.39  4944.70  5134.13
          (Kelvin)           5134.13

 Zero-point correction=                           0.034534 (Hartree/Particle)
 Thermal correction to Energy=                    0.034534
 Thermal correction to Enthalpy=                  0.034534
 Thermal correction to Gibbs Free Energy=         0.034534
 Sum of electronic and zero-point Energies=            -56.513413
 Sum of electronic and thermal Energies=               -56.513413
 Sum of electronic and thermal Enthalpies=             -56.513413
 Sum of electronic and thermal Free Energies=          -56.513413

                     E (Thermal)             CV                S
                      KCal/Mol        Cal/Mol-Kelvin    Cal/Mol-Kelvin
 Total                   21.671              5.962            -54.286
 Electronic               0.000              0.000              0.000
 Translational            0.000              2.981            -28.183
 Rotational               0.000              2.981            -26.103
 Vibrational             21.671              0.000              0.000

 Optimization completed.
    -- Stationary point found.
 Normal termination of Gaussian 16 at Sun Oct 13 20:09:54 2019.
