 Gaussian 16, Revision A.03,
 Gaussian 16:  ES64L-G16RevA.03 25-Dec-2016

 --------------------------------------------------------------
 #P opt freq b3lyp/6-31g(d) geom=connectivity temperature=0.001
 --------------------------------------------------------------

 -------------------
 Title Card Required
 -------------------
 Symbolic Z-matrix:
 Charge =  1 Multiplicity = 1

 SCF Done:  E(RB3LYP) =  -116.007201470     A.U. after   10 cycles
 SCF Done:  E(RB3LYP) =  -116.014469199     A.U. after   11 cycles
 SCF Done:  E(RB3LYP) =  -116.015277414     A.U. after   10 cycles
 SCF Done:  E(RB3LYP) =  -116.015460737     A.U. after    9 cycles
 SCF Done:  E(RB3LYP) =  -116.015570328     A.U. after    9 cycles
 SCF Done:  E(RB3LYP) =  -116.015647498     A.U. after   10 cycles
 SCF Done:  E(RB3LYP) =  -116.015703942     A.U. after   10 cycles
 SCF Done:  E(RB3LYP) =  -116.015729835     A.U. after    9 cycles
 SCF Done:  E(RB3LYP) =  -116.015743053     A.U. after    8 cycles
 SCF Done:  E(RB3LYP) =  -116.015743836     A.U. after    7 cycles
 Optimization completed.
    -- Stationary point found.
 Normal termination of Gaussian 16 at Sun Oct 13 20:25:29 2019.

 --------------------------------------------------------------------
 #P Geom=AllCheck Guess=TCheck SCRF=Check GenChk RB3LYP/6-31G(d) Freq
 --------------------------------------------------------------------

 Structure from the checkpoint file:  "methanol_p.chk"
 -------------------
 Title Card Required
 -------------------
 Charge =  1 Multiplicity = 1

                         Standard orientation:
 ---------------------------------------------------------------------
 Center     Atomic      Atomic             Coordinates (Angstroms)
 Number     Number       Type             X           Y           Z
 ---------------------------------------------------------------------
      1          6           0       -0.797658    0.000001    0.018878
      2          1           0       -1.105601    0.901226   -0.506911
      3          1           0       -1.105638   -0.901032   -0.507227
      4          1           0       -1.065772   -0.000190    1.074616
      5          8           0        0.720134   -0.000000   -0.091212
      6          1           0        1.150949   -0.802834    0.277966
      7          1           0        1.150938    0.802826    0.277990
 ---------------------------------------------------------------------

 SCF Done:  E(RB3LYP) =  -116.015743836     A.U. after    1 cycles

 The electronic state is 1-A.
 Alpha  occ. eigenvalues --  -19.53901 -10.49695  -1.39536  -0.98080  -0.89690
 Alpha  occ. eigenvalues --   -0.78335  -0.72559  -0.66109  -0.62659
 Alpha virt. eigenvalues --   -0.23564  -0.13930  -0.13549  -0.08301  -0.05193
 Alpha virt. eigenvalues --   -0.04938   0.26592   0.29141   0.31670   0.50526
 Alpha virt. eigenvalues --    0.51452   0.58910   0.62266   0.64032   0.66796

 Mulliken charges:
               1
     1  C   -0.280896
     2  H    0.276853
     3  H    0.276859
     4  H    0.261502
     5  O   -0.578062
     6  H    0.521872
     7  H    0.521872
 Sum of Mulliken charges =   1.00000

 Dipole moment (field-independent basis, Debye):
    X=              1.4740    Y=             -0.0000    Z=              1.3835  Tot=              2.0216
 Quadrupole moment (field-independent basis, Debye-Ang):
   XX=             -5.3515   YY=             -8.1637   ZZ=            -11.4540
   XY=             -0.0000   XZ=              1.8900   YZ=              0.0000

  Exact polarizability:  15.419   0.000  14.707   0.660  -0.000  12.623
 Approx polarizability:  18.083   0.000  18.576   0.712  -0.000  15.551

                      1                      2                      3
                      A                      A                      A
 Frequencies --    255.0049               730.0005               814.4201
 Red. masses --      1.0245                 1.3134                 4.0701
 Frc consts  --      0.0393                 0.4124                 1.5906
 IR Inten    --     48.6752               344.2000                32.9014

                      4                      5                      6
                      A                      A                      A
 Frequencies --    941.7097              1168.9847              1290.5442
 Red. masses --      1.0278                 1.2358                 1.3136
 Frc consts  --      0.5370                 0.9950                 1.2890
 IR Inten    --      7.4645                 8.5069                 2.4754

                      7                      8                      9
                      A                      A                      A
 Frequencies --   1474.8832              1496.2812              1497.8459
 Red. masses --      1.1158                 1.0527                 1.0414
 Frc consts  --      1.4300                 1.3886                 1.3766
 IR Inten    --      2.5546                26.4738                21.8665

                     10                     11                     12
                      A                      A                      A
 Frequencies --   1714.1865              3121.7942              3247.5671
 Red. masses --      1.0788                 1.0242                 1.1162
 Frc consts  --      1.8677                 5.8809                 6.9357
 IR Inten    --    115.9364                 0.4296                 2.6545

                     13                     14                     15
                      A                      A                      A
 Frequencies --   3256.2189              3583.3388              3665.3785
 Red. masses --      1.1153                 1.0431                 1.0894
 Frc consts  --      6.9673                 7.8916                 8.6234
 IR Inten    --      5.5449               202.5605               326.1102

 - Thermochemistry -
 -------------------
 Temperature     0.001 Kelvin.  Pressure   1.00000 Atm.
 Atom     1 has atomic number  6 and mass  12.00000

 Molecular mass:    33.03404 amu.
 Principal axes and moments of inertia in atomic units:
                           1         2         3
     Eigenvalues --    17.43558  86.22149  89.75474
           X            0.99957   0.00000   0.02929
           Y           -0.00000   1.00000  -0.00000
           Z           -0.02929   0.00000   0.99957
 This molecule is an asymmetric top.
 Rotational symmetry number  1.
 Rotational temperatures (Kelvin)      4.96765     1.00455     0.96501
 Rotational constants (GHZ):         103.50911    20.93145    20.10747
 Zero-point vibrational energy     169021.3 (Joules/Mol)
                                   40.39707 (Kcal/Mol)
 Vibrational temperatures:    366.90  1050.31  1171.77  1354.91  1681.91
          (Kelvin)           1856.81  2122.03  2152.81  2155.07  2466.33
                             4491.57  4672.52  4684.97  5155.63  5273.66

 Zero-point correction=                           0.064377 (Hartree/Particle)
 Thermal correction to Energy=                    0.064377
 Thermal correction to Enthalpy=                  0.064377
 Thermal correction to Gibbs Free Energy=         0.064377
 Sum of electronic and zero-point Energies=           -115.951367
 Sum of electronic and thermal Energies=              -115.951367
 Sum of electronic and thermal Enthalpies=            -115.951367
 Sum of electronic and thermal Free Energies=         -115.951367

                     E (Thermal)             CV                S
                      KCal/Mol        Cal/Mol-Kelvin    Cal/Mol-Kelvin
 Total                   40.397              5.962            -44.241
 Electronic               0.000              0.000              0.000
 Translational            0.000              2.981            -26.207
 Rotational               0.000              2.981            -18.034
 Vibrational             40.397              0.000              0.000

 Optimization completed.
    -- Stationary point found.
 Normal termination of Gaussian 16 at Sun Oct 13 20:26:31 2019.
