 Gaussian 16, Revision A.03,
 Gaussian 16:  ES64L-G16RevA.03 25-Dec-2016

 --------------------------------------------------------------
 #P opt freq b3lyp/6-31g(d) geom=connectivity temperature=0.001
 --------------------------------------------------------------

 -------------------
 Title Card Required
 -------------------
 Symbolic Z-matrix:
 Charge =  0 Multiplicity = 1

 SCF Done:  E(RB3LYP) =  -115.711698834     A.U. after   11 cycles
 SCF Done:  E(RB3LYP) =  -115.714263438     A.U. after   10 cycles
 SCF Done:  E(RB3LYP) =  -115.714392345     A.U. after    9 cycles
 SCF Done:  E(RB3LYP) =  -115.714404922     A.U. after    7 cycles
 SCF Done:  E(RB3LYP) =  -115.714405789     A.U. after    7 cycles
 Optimization completed.
    -- Stationary point found.
 Normal termination of Gaussian 16 at Sun Oct 13 20:17:21 2019.

 --------------------------------------------------------------------
 #P Geom=AllCheck Guess=TCheck SCRF=Check GenChk RB3LYP/6-31G(d) Freq
 --------------------------------------------------------------------

 Structure from the checkpoint file:  "methanol.chk"
 -------------------
 Title Card Required
 -------------------
 Charge =  0 Multiplicity = 1

                         Standard orientation:
 ---------------------------------------------------------------------
 Center     Atomic      Atomic             Coordinates (Angstroms)
 Number     Number       Type             X           Y           Z
 ---------------------------------------------------------------------
      1          6           0       -0.046872    0.660947   -0.000000
      2          1           0       -1.094149    0.975091   -0.000000
      3          1           0        0.437098    1.086187    0.893150
      4          1           0        0.437098    1.086187   -0.893150
      5          8           0       -0.046872   -0.757683    0.000000
      6          1           0        0.876159   -1.051685    0.000000
 ---------------------------------------------------------------------

 SCF Done:  E(RB3LYP) =  -115.714405789     A.U. after    1 cycles

 The electronic state is 1-A'.
 Alpha  occ. eigenvalues --  -19.14014 -10.22469  -1.01049  -0.67826  -0.50232
 Alpha  occ. eigenvalues --   -0.43400  -0.41918  -0.33026  -0.26454
 Alpha virt. eigenvalues --    0.07525   0.13074   0.16671   0.17517   0.20591
 Alpha virt. eigenvalues --    0.53424   0.56725   0.57743   0.78634   0.84878
 Alpha virt. eigenvalues --    0.86912   0.90174   0.95381   0.97726   1.02227

 Mulliken charges:
               1
     1  C   -0.205097
     2  H    0.161380
     3  H    0.129239
     4  H    0.129239
     5  O   -0.605216
     6  H    0.390456
 Sum of Mulliken charges =  -0.00000

 Dipole moment (field-independent basis, Debye):
    X=              1.4378    Y=              0.8959    Z=              0.0000  Tot=              1.6941
 Quadrupole moment (field-independent basis, Debye-Ang):
   XX=            -11.5523   YY=            -13.0285   ZZ=            -13.5824
   XY=             -2.1199   XZ=             -0.0000   YZ=             -0.0000

  Exact polarizability:  16.169  -1.085  16.942  -0.000   0.000  14.000
 Approx polarizability:  20.504  -0.784  20.797   0.000  -0.000  16.917

                      1                      2                      3
                     A"                     A'                     A'
 Frequencies --    345.8093              1067.1292              1096.6384
 Red. masses --      1.0693                 2.1706                 1.6760
 Frc consts  --      0.0753                 1.4564                 1.1876
 IR Inten    --    127.8379               120.0352                 1.5407

                      4                      5                      6
                     A"                     A'                     A'
 Frequencies --   1183.1184              1399.9225              1511.3027
 Red. masses --      1.2672                 1.2816                 1.1406
 Frc consts  --      1.0451                 1.4799                 1.5349
 IR Inten    --      0.6196                28.0295                 7.4262

                      7                      8                      9
                     A"                     A'                     A'
 Frequencies --   1524.9392              1541.5258              2996.8503
 Red. masses --      1.0505                 1.0502                 1.0377
 Frc consts  --      1.4393                 1.4704                 5.4908
 IR Inten    --      1.5740                 4.1129                64.7389

                     10                     11                     12
                     A"                     A'                     A'
 Frequencies --   3039.2591              3132.2307              3753.8083
 Red. masses --      1.1058                 1.0961                 1.0664
 Frc consts  --      6.0182                 6.3356                 8.8534
 IR Inten    --     85.8627                34.6987                11.2090

 - Thermochemistry -
 -------------------
 Temperature     0.001 Kelvin.  Pressure   1.00000 Atm.
 Atom     1 has atomic number  6 and mass  12.00000

 Molecular mass:    32.02621 amu.
 Principal axes and moments of inertia in atomic units:
                           1         2         3
     Eigenvalues --    14.18716  72.84158  75.54479
           X           -0.05444   0.99852  -0.00000
           Y            0.99852   0.05444   0.00000
           Z           -0.00000   0.00000   1.00000
 This molecule is an asymmetric top.
 Rotational symmetry number  1.
 Rotational temperatures (Kelvin)      6.10509     1.18907     1.14652
 Rotational constants (GHZ):         127.20948    24.77625    23.88968
 Zero-point vibrational energy     135133.4 (Joules/Mol)
                                   32.29765 (Kcal/Mol)
 Vibrational temperatures:    497.54  1535.36  1577.82  1702.24  2014.18
          (Kelvin)           2174.43  2194.05  2217.91  4311.80  4372.82
                             4506.58  5400.89

 Zero-point correction=                           0.051470 (Hartree/Particle)
 Thermal correction to Energy=                    0.051470
 Thermal correction to Enthalpy=                  0.051470
 Thermal correction to Gibbs Free Energy=         0.051470
 Sum of electronic and zero-point Energies=           -115.662936
 Sum of electronic and thermal Energies=              -115.662936
 Sum of electronic and thermal Enthalpies=            -115.662936
 Sum of electronic and thermal Free Energies=         -115.662936

                     E (Thermal)             CV                S
                      KCal/Mol        Cal/Mol-Kelvin    Cal/Mol-Kelvin
 Total                   32.298              5.962            -44.877
 Electronic               0.000              0.000              0.000
 Translational            0.000              2.981            -26.300
 Rotational               0.000              2.981            -18.578
 Vibrational             32.298              0.000              0.000

 Optimization completed.
    -- Stationary point found.
 Normal termination of Gaussian 16 at Sun Oct 13 20:18:05 2019.
