 Gaussian 16, Revision A.03,
 Gaussian 16:  ES64L-G16RevA.03 25-Dec-2016

 --------------------------------------------------------------
 #P opt freq b3lyp/6-31g(d) geom=connectivity temperature=0.001
 --------------------------------------------------------------

 ---
 MOP
 ---
 Symbolic Z-matrix:
 Charge =  0 Multiplicity = 1

 SCF Done:  E(RB3LYP) =  -232.416634388     A.U. after   13 cycles
 SCF Done:  E(RB3LYP) =  -232.425015692     A.U. after   12 cycles
 SCF Done:  E(RB3LYP) =  -232.426656689     A.U. after   12 cycles
 SCF Done:  E(RB3LYP) =  -232.427479802     A.U. after   12 cycles
 SCF Done:  E(RB3LYP) =  -232.427773947     A.U. after   12 cycles
 SCF Done:  E(RB3LYP) =  -232.428424649     A.U. after   13 cycles
 SCF Done:  E(RB3LYP) =  -232.428667599     A.U. after   10 cycles
 SCF Done:  E(RB3LYP) =  -232.428778100     A.U. after   11 cycles
 SCF Done:  E(RB3LYP) =  -232.428792630     A.U. after   10 cycles
 SCF Done:  E(RB3LYP) =  -232.428796585     A.U. after    9 cycles
 SCF Done:  E(RB3LYP) =  -232.428797246     A.U. after    8 cycles
 SCF Done:  E(RB3LYP) =  -232.428797600     A.U. after    7 cycles
 SCF Done:  E(RB3LYP) =  -232.428797708     A.U. after    7 cycles
 Optimization completed.
    -- Stationary point found.
 Normal termination of Gaussian 16 at Mon Oct 14 01:56:57 2019.

 --------------------------------------------------------------------
 #P Geom=AllCheck Guess=TCheck SCRF=Check GenChk RB3LYP/6-31G(d) Freq
 --------------------------------------------------------------------

 Structure from the checkpoint file:  "mop.chk"
 ---
 MOP
 ---
 Charge =  0 Multiplicity = 1

                         Standard orientation:
 ---------------------------------------------------------------------
 Center     Atomic      Atomic             Coordinates (Angstroms)
 Number     Number       Type             X           Y           Z
 ---------------------------------------------------------------------
      1          6           0       -0.554776    0.088628   -0.042167
      2          6           0       -0.610541   -1.416351   -0.037722
      3          6           0       -1.619887    0.877218    0.132486
      4          8           0        0.654893    0.685950   -0.321409
      5          6           0        1.834215    0.073370    0.179891
      6          1           0       -1.643640   -1.752433    0.078088
      7          1           0       -0.216874   -1.827557   -0.976307
      8          1           0       -0.023741   -1.853056    0.780055
      9          1           0       -2.608858    0.453992    0.264527
     10          1           0       -1.520202    1.957100    0.116859
     11          1           0        2.003205   -0.923722   -0.246801
     12          1           0        2.659275    0.725096   -0.116121
     13          1           0        1.817623   -0.004218    1.276045
 ---------------------------------------------------------------------

 SCF Done:  E(RB3LYP) =  -232.428797708     A.U. after    1 cycles

 The electronic state is 1-A.
 Alpha  occ. eigenvalues --  -19.16113 -10.23660 -10.23425 -10.18757 -10.15809
 Alpha  occ. eigenvalues --   -1.04573  -0.77947  -0.70859  -0.66991  -0.54731
 Alpha  occ. eigenvalues --   -0.48249  -0.46707  -0.46176  -0.41537  -0.40302
 Alpha  occ. eigenvalues --   -0.39686  -0.37164  -0.33514  -0.29719  -0.21629
 Alpha virt. eigenvalues --    0.03985   0.09023   0.11525   0.14119   0.15434
 Alpha virt. eigenvalues --    0.15644   0.16538   0.17566   0.20122   0.20765
 Alpha virt. eigenvalues --    0.24154   0.32603   0.36944   0.50874   0.51892

 Mulliken charges:
               1
     1  C    0.423984
     2  C   -0.529916
     3  C   -0.418871
     4  O   -0.481115
     5  C   -0.210670
     6  H    0.165080
     7  H    0.164892
     8  H    0.159807
     9  H    0.131851
    10  H    0.141062
    11  H    0.143494
    12  H    0.165678
    13  H    0.144723
 Sum of Mulliken charges =  -0.00000

 Dipole moment (field-independent basis, Debye):
    X=              0.8439    Y=             -1.5127    Z=              0.5740  Tot=              1.8248
 Quadrupole moment (field-independent basis, Debye-Ang):
   XX=            -28.0832   YY=            -31.3061   ZZ=            -32.9008
   XY=              0.0788   XZ=              0.4305   YZ=              0.5055

  Exact polarizability:  60.010  -6.728  48.399  -1.911   1.026  30.889
 Approx polarizability:  80.757 -12.797  65.211  -4.608   1.159  43.356

                      1                      2                      3
                      A                      A                      A
 Frequencies --     79.4473               190.8583               239.7744
 Red. masses --      2.7137                 1.0900                 1.1303
 Frc consts  --      0.0101                 0.0234                 0.0383
 IR Inten    --      6.4789                 1.5730                 0.9583

                      4                      5                      6
                      A                      A                      A
 Frequencies --    309.2575               422.0568               478.0773
 Red. masses --      2.2755                 2.1842                 2.7116
 Frc consts  --      0.1282                 0.2292                 0.3652
 IR Inten    --      1.1130                 0.6618                 3.6687

                      7                      8                      9
                      A                      A                      A
 Frequencies --    537.6286               747.9468               811.8099
 Red. masses --      2.4421                 1.1653                 3.6901
 Frc consts  --      0.4159                 0.3841                 1.4328
 IR Inten    --      5.5537                 2.2130                 8.4200

                     10                     11                     12
                      A                      A                      A
 Frequencies --    853.7600               938.8219              1032.3519
 Red. masses --      1.3687                 1.8134                 1.4382
 Frc consts  --      0.5878                 0.9417                 0.9031
 IR Inten    --     55.7112                 6.7067                 3.6549

                     13                     14                     15
                      A                      A                      A
 Frequencies --   1083.3571              1132.7767              1182.4637
 Red. masses --      1.5031                 4.9559                 1.2729
 Frc consts  --      1.0394                 3.7468                 1.0486
 IR Inten    --      2.5389               108.5340                 4.3570

                     16                     17                     18
                      A                      A                      A
 Frequencies --   1218.2793              1314.5403              1431.5457
 Red. masses --      1.4247                 3.1889                 1.2109
 Frc consts  --      1.2458                 3.2467                 1.4621
 IR Inten    --      0.4655               183.9558                24.1848

                     19                     20                     21
                      A                      A                      A
 Frequencies --   1452.8924              1504.3982              1508.5259
 Red. masses --      1.2806                 1.1254                 1.0569
 Frc consts  --      1.5927                 1.5006                 1.4170
 IR Inten    --      4.6678                 2.9109                 4.2675

                     22                     23                     24
                      A                      A                      A
 Frequencies --   1518.1297              1529.5898              1537.0989
 Red. masses --      1.0694                 1.0614                 1.0475
 Frc consts  --      1.4522                 1.4631                 1.4581
 IR Inten    --     10.8018                10.2354                 7.3784

                     25                     26                     27
                      A                      A                      A
 Frequencies --   1740.2978              3021.2912              3043.2840
 Red. masses --      5.3390                 1.0362                 1.0400
 Frc consts  --      9.5271                 5.5728                 5.6749
 IR Inten    --     99.1822                53.0311                25.8519

                     28                     29                     30
                      A                      A                      A
 Frequencies --   3080.7935              3091.9558              3146.0974
 Red. masses --      1.1043                 1.1003                 1.0984
 Frc consts  --      6.1756                 6.1975                 6.4054
 IR Inten    --     52.7636                21.2405                36.1400

                     31                     32                     33
                      A                      A                      A
 Frequencies --   3148.1064              3189.1835              3275.0763
 Red. masses --      1.0994                 1.0600                 1.1178
 Frc consts  --      6.4197                 6.3520                 7.0641
 IR Inten    --      8.0088                 0.8981                 9.9292

 - Thermochemistry -
 -------------------
 Temperature     0.001 Kelvin.  Pressure   1.00000 Atm.
 Atom     1 has atomic number  6 and mass  12.00000

 Molecular mass:    72.05751 amu.
 Principal axes and moments of inertia in atomic units:
                           1         2         3
     Eigenvalues --   220.92439 424.95047 605.60251
           X            0.99988  -0.01383   0.00654
           Y            0.01374   0.99983   0.01237
           Z           -0.00671  -0.01228   0.99990
 This molecule is an asymmetric top.
 Rotational symmetry number  1.
 Rotational temperatures (Kelvin)      0.39205     0.20382     0.14302
 Rotational constants (GHZ):           8.16904     4.24694     2.98008
 Zero-point vibrational energy     297819.2 (Joules/Mol)
                                   71.18049 (Kcal/Mol)
 Vibrational temperatures:    114.31   274.60   344.98   444.95   607.25
          (Kelvin)            687.85   773.53  1076.13  1168.01  1228.37
                             1350.76  1485.32  1558.71  1629.81  1701.30
                             1752.83  1891.33  2059.68  2090.39  2164.49
                             2170.43  2184.25  2200.74  2211.54  2503.90
                             4346.96  4378.61  4432.57  4448.63  4526.53
                             4529.42  4588.52  4712.10

 Zero-point correction=                           0.113433 (Hartree/Particle)
 Thermal correction to Energy=                    0.113433
 Thermal correction to Enthalpy=                  0.113433
 Thermal correction to Gibbs Free Energy=         0.113433
 Sum of electronic and zero-point Energies=           -232.315364
 Sum of electronic and thermal Energies=              -232.315364
 Sum of electronic and thermal Enthalpies=            -232.315364
 Sum of electronic and thermal Free Energies=         -232.315364

                     E (Thermal)             CV                S
                      KCal/Mol        Cal/Mol-Kelvin    Cal/Mol-Kelvin
 Total                   71.180              5.962            -35.912
 Electronic               0.000              0.000              0.000
 Translational            0.000              2.981            -23.882
 Rotational               0.000              2.981            -12.029
 Vibrational             71.180              0.000              0.000

 Optimization completed.
    -- Stationary point found.
 Normal termination of Gaussian 16 at Mon Oct 14 01:57:05 2019.
