 Gaussian 16, Revision A.03,
 Gaussian 16:  ES64L-G16RevA.03 25-Dec-2016

 --------------------------------------------------------------
 #P opt freq b3lyp/6-31g(d) geom=connectivity temperature=0.001
 --------------------------------------------------------------

 --------
 MOP Plus
 --------
 Symbolic Z-matrix:
 Charge =  1 Multiplicity = 1

 SCF Done:  E(RB3LYP) =  -232.725502173     A.U. after   13 cycles
 SCF Done:  E(RB3LYP) =  -232.754824657     A.U. after   13 cycles
 SCF Done:  E(RB3LYP) =  -232.763326090     A.U. after   13 cycles
 SCF Done:  E(RB3LYP) =  -232.770817554     A.U. after   13 cycles
 SCF Done:  E(RB3LYP) =  -232.709384805     A.U. after   13 cycles
 SCF Done:  E(RB3LYP) =  -232.783665939     A.U. after   13 cycles
 SCF Done:  E(RB3LYP) =  -232.775784343     A.U. after   12 cycles
 SCF Done:  E(RB3LYP) =  -232.794784451     A.U. after   12 cycles
 SCF Done:  E(RB3LYP) =  -232.796072398     A.U. after   11 cycles
 SCF Done:  E(RB3LYP) =  -232.796179925     A.U. after   11 cycles
 SCF Done:  E(RB3LYP) =  -232.796882952     A.U. after    8 cycles
 SCF Done:  E(RB3LYP) =  -232.796892659     A.U. after    9 cycles
 SCF Done:  E(RB3LYP) =  -232.796903296     A.U. after    9 cycles
 SCF Done:  E(RB3LYP) =  -232.796913866     A.U. after    9 cycles
 SCF Done:  E(RB3LYP) =  -232.796916344     A.U. after    9 cycles
 SCF Done:  E(RB3LYP) =  -232.796917074     A.U. after    9 cycles
 SCF Done:  E(RB3LYP) =  -232.796917198     A.U. after    7 cycles
 SCF Done:  E(RB3LYP) =  -232.796917232     A.U. after    6 cycles
 SCF Done:  E(RB3LYP) =  -232.796917238     A.U. after    6 cycles
 Optimization completed.
    -- Stationary point found.
 Normal termination of Gaussian 16 at Mon Oct 14 01:58:47 2019.

 --------------------------------------------------------------------
 #P Geom=AllCheck Guess=TCheck SCRF=Check GenChk RB3LYP/6-31G(d) Freq
 --------------------------------------------------------------------

 Structure from the checkpoint file:  "mop_plus.chk"
 --------
 MOP Plus
 --------
 Charge =  1 Multiplicity = 1

                         Standard orientation:
 ---------------------------------------------------------------------
 Center     Atomic      Atomic             Coordinates (Angstroms)
 Number     Number       Type             X           Y           Z
 ---------------------------------------------------------------------
      1          6           0       -0.466527   -0.004179    0.000022
      2          6           0       -1.754965   -0.727510    0.000000
      3          6           0       -0.394144    1.478370    0.000015
      4          8           0        0.574968   -0.736670   -0.000020
      5          6           0        1.947800   -0.203899    0.000006
      6          1           0       -2.340190   -0.413841   -0.876468
      7          1           0       -1.617218   -1.809158   -0.000160
      8          1           0       -2.340058   -0.414107    0.876654
      9          1           0       -1.389457    1.923391    0.000436
     10          1           0        0.159886    1.831803    0.881003
     11          1           0        2.098749    0.387971    0.903990
     12          1           0        2.578031   -1.089773   -0.000399
     13          1           0        2.098555    0.388674   -0.903547
     14          1           0        0.158972    1.831704   -0.881615
 ---------------------------------------------------------------------

 SCF Done:  E(RB3LYP) =  -232.796917238     A.U. after    1 cycles

 The electronic state is 1-A.
 Alpha  occ. eigenvalues --  -19.45594 -10.54138 -10.44434 -10.40185 -10.38938
 Alpha  occ. eigenvalues --   -1.34378  -1.02073  -0.94847  -0.91272  -0.78384
 Alpha  occ. eigenvalues --   -0.71662  -0.71167  -0.70488  -0.63361  -0.61751
 Alpha  occ. eigenvalues --   -0.60851  -0.60494  -0.58755  -0.56696  -0.55327
 Alpha virt. eigenvalues --   -0.27793  -0.11492  -0.09199  -0.06080  -0.05349
 Alpha virt. eigenvalues --   -0.04296  -0.02499  -0.01474  -0.00582   0.00183
 Alpha virt. eigenvalues --    0.01636   0.04718   0.08213   0.13627   0.28118

 Mulliken charges:
               1
     1  C    0.494611
     2  C   -0.552962
     3  C   -0.564162
     4  O   -0.321721
     5  C   -0.271411
     6  H    0.252122
     7  H    0.247317
     8  H    0.252128
     9  H    0.245899
    10  H    0.250791
    11  H    0.228999
    12  H    0.258593
    13  H    0.228972
    14  H    0.250825
 Sum of Mulliken charges =   1.00000

 Dipole moment (field-independent basis, Debye):
    X=              0.1177    Y=              1.3418    Z=             -0.0001  Tot=              1.3470
 Quadrupole moment (field-independent basis, Debye-Ang):
   XX=            -15.0801   YY=            -24.7979   ZZ=            -27.7579
   XY=              0.3163   XZ=              0.0001   YZ=             -0.0004

  Exact polarizability:  56.087  -0.560  43.459   0.000  -0.001  33.546
 Approx polarizability:  71.697  -3.264  59.034  -0.000  -0.002  47.541

                      1                      2                      3
                      A                      A                      A
 Frequencies --     37.9985               127.9315               154.2829
 Red. masses --      1.0456                 1.0178                 1.1495
 Frc consts  --      0.0009                 0.0098                 0.0161
 IR Inten    --      0.2387                 0.0173                 7.2905

                      4                      5                      6
                      A                      A                      A
 Frequencies --    241.0278               287.5403               388.3934
 Red. masses --      2.4644                 2.7125                 2.2700
 Frc consts  --      0.0844                 0.1321                 0.2018
 IR Inten    --      3.4583                 2.5081                 0.3437

                      7                      8                      9
                      A                      A                      A
 Frequencies --    508.8429               539.3670               774.5544
 Red. masses --      2.0785                 3.2732                 3.7447
 Frc consts  --      0.3171                 0.5610                 1.3236
 IR Inten    --      0.7723                 7.6360                 9.0175

                     10                     11                     12
                      A                      A                      A
 Frequencies --    884.9393               926.7976               988.7275
 Red. masses --      1.2210                 3.3862                 1.4808
 Frc consts  --      0.5634                 1.7137                 0.8529
 IR Inten    --      0.0096                31.7376                 2.8627

                     13                     14                     15
                      A                      A                      A
 Frequencies --   1084.6697              1118.5553              1162.2587
 Red. masses --      1.7908                 1.9960                 1.2686
 Frc consts  --      1.2414                 1.4714                 1.0097
 IR Inten    --      7.3912                16.3115                 1.1500

                     16                     17                     18
                      A                      A                      A
 Frequencies --   1204.0034              1329.4686              1396.6671
 Red. masses --      1.3837                 2.6225                 1.2074
 Frc consts  --      1.1818                 2.7310                 1.3877
 IR Inten    --      5.2834                48.3644               123.3604

                     19                     20                     21
                      A                      A                      A
 Frequencies --   1407.8212              1447.2689              1467.8457
 Red. masses --      1.1964                 1.2866                 1.0484
 Frc consts  --      1.3971                 1.5878                 1.3309
 IR Inten    --     49.2995                69.3200                10.4001

                     22                     23                     24
                      A                      A                      A
 Frequencies --   1479.2496              1483.8708              1492.7784
 Red. masses --      1.1045                 1.0474                 1.1356
 Frc consts  --      1.4240                 1.3588                 1.4909
 IR Inten    --      0.0269                15.7504                39.4590

                     25                     26                     27
                      A                      A                      A
 Frequencies --   1504.7117              1519.1619              1632.4369
 Red. masses --      1.1579                 1.0464                 3.8956
 Frc consts  --      1.5446                 1.4228                 6.1165
 IR Inten    --     14.8147                39.7231               199.6587

                     28                     29                     30
                      A                      A                      A
 Frequencies --   3040.7181              3046.6843              3092.1637
 Red. masses --      1.0405                 1.0421                 1.0969
 Frc consts  --      5.6680                 5.6994                 6.1796
 IR Inten    --     35.3281                11.8355                 7.5035

                     31                     32                     33
                      A                      A                      A
 Frequencies --   3097.3687              3101.6626              3187.8965
 Red. masses --      1.0977                 1.0285                 1.1000
 Frc consts  --      6.2049                 5.8294                 6.5862
 IR Inten    --      4.6483                 0.9117                 1.4500

                     34                     35                     36
                      A                      A                      A
 Frequencies --   3192.5578              3201.5579              3238.4539
 Red. masses --      1.1021                 1.1117                 1.1092
 Frc consts  --      6.6186                 6.7137                 6.8538
 IR Inten    --      3.4662                 0.3173                 0.8611

 - Thermochemistry -
 -------------------
 Temperature     0.001 Kelvin.  Pressure   1.00000 Atm.
 Atom     1 has atomic number  6 and mass  12.00000

 Molecular mass:    73.06534 amu.
 Principal axes and moments of inertia in atomic units:
                           1         2         3
     Eigenvalues --   221.49351 458.12848 645.62054
           X            0.99972   0.02355   0.00000
           Y           -0.02355   0.99972  -0.00000
           Z           -0.00000   0.00000   1.00000
 This molecule is an asymmetric top.
 Rotational symmetry number  1.
 Rotational temperatures (Kelvin)      0.39104     0.18906     0.13416
 Rotational constants (GHZ):           8.14805     3.93938     2.79536
 Zero-point vibrational energy     327718.4 (Joules/Mol)
                                   78.32657 (Kcal/Mol)
 Vibrational temperatures:     54.67   184.06   221.98   346.79   413.71
          (Kelvin)            558.81   732.11   776.03  1114.41  1273.23
                             1333.46  1422.56  1560.60  1609.35  1672.23
                             1732.29  1912.81  2009.49  2025.54  2082.30
                             2111.90  2128.31  2134.96  2147.78  2164.94
                             2185.74  2348.71  4374.92  4383.50  4448.93
                             4456.42  4462.60  4586.67  4593.38  4606.33
                             4659.41

 Zero-point correction=                           0.124821 (Hartree/Particle)
 Thermal correction to Energy=                    0.124821
 Thermal correction to Enthalpy=                  0.124821
 Thermal correction to Gibbs Free Energy=         0.124821
 Sum of electronic and zero-point Energies=           -232.672096
 Sum of electronic and thermal Energies=              -232.672096
 Sum of electronic and thermal Enthalpies=            -232.672096
 Sum of electronic and thermal Free Energies=         -232.672096

                     E (Thermal)             CV                S
                      KCal/Mol        Cal/Mol-Kelvin    Cal/Mol-Kelvin
 Total                   78.327              5.962            -35.730
 Electronic               0.000              0.000              0.000
 Translational            0.000              2.981            -23.841
 Rotational               0.000              2.981            -11.889
 Vibrational             78.327              0.000              0.000

 Optimization completed.
    -- Stationary point found.
 Normal termination of Gaussian 16 at Mon Oct 14 01:58:56 2019.
