 Gaussian 16, Revision A.03,
 Gaussian 16:  ES64L-G16RevA.03 25-Dec-2016

 --------------------------------------------------------------
 #P opt freq b3lyp/6-31g(d) geom=connectivity temperature=0.001
 --------------------------------------------------------------

 -----------------
 imidazole neutral
 -----------------
 Symbolic Z-matrix:
 Charge =  0 Multiplicity = 1

 SCF Done:  E(RB3LYP) =  -999.657520941     A.U. after   18 cycles
 SCF Done:  E(RB3LYP) =  -999.720508040     A.U. after   13 cycles
 SCF Done:  E(RB3LYP) =  -999.754891199     A.U. after   15 cycles
 SCF Done:  E(RB3LYP) =  -999.766924580     A.U. after   13 cycles
 SCF Done:  E(RB3LYP) =  -999.768348857     A.U. after   13 cycles
 SCF Done:  E(RB3LYP) =  -999.768798909     A.U. after   12 cycles
 SCF Done:  E(RB3LYP) =  -999.768753091     A.U. after   11 cycles
 SCF Done:  E(RB3LYP) =  -999.768883152     A.U. after   10 cycles
 SCF Done:  E(RB3LYP) =  -999.768886886     A.U. after    9 cycles
 SCF Done:  E(RB3LYP) =  -999.768893500     A.U. after   10 cycles
 SCF Done:  E(RB3LYP) =  -999.773666042     A.U. after   10 cycles
 SCF Done:  E(RB3LYP) =  -999.773773709     A.U. after   11 cycles
 SCF Done:  E(RB3LYP) =  -999.774026214     A.U. after   12 cycles
 SCF Done:  E(RB3LYP) =  -999.774053363     A.U. after   12 cycles
 SCF Done:  E(RB3LYP) =  -999.774067912     A.U. after   12 cycles
 SCF Done:  E(RB3LYP) =  -999.774103979     A.U. after   12 cycles
 SCF Done:  E(RB3LYP) =  -999.774116506     A.U. after   11 cycles
 SCF Done:  E(RB3LYP) =  -999.774117648     A.U. after   10 cycles
 SCF Done:  E(RB3LYP) =  -999.774117975     A.U. after    8 cycles
 Optimization completed.
    -- Stationary point found.
 Normal termination of Gaussian 16 at Mon Oct 14 13:37:52 2019.

 --------------------------------------------------------------------
 #P Geom=AllCheck Guess=TCheck SCRF=Check GenChk RB3LYP/6-31G(d) Freq
 --------------------------------------------------------------------

 Structure from the checkpoint file:  "01.chk"
 -----------------
 imidazole neutral
 -----------------
 Charge =  0 Multiplicity = 1

                         Standard orientation:
 ---------------------------------------------------------------------
 Center     Atomic      Atomic             Coordinates (Angstroms)
 Number     Number       Type             X           Y           Z
 ---------------------------------------------------------------------
      1         16           0       -0.000022    1.145246    0.072038
      2          8           0       -0.000140    1.752065    1.387386
      3          8           0        0.000019    1.865788   -1.184818
      4          7           0       -1.340841    0.101576    0.017222
      5          6           0       -1.986292   -0.358109   -1.127021
      6          6           0       -1.929479   -0.550109    1.105544
      7          1           0       -1.720872    0.003576   -2.109890
      8          6           0       -2.892599   -1.341921    0.554429
      9          1           0       -1.620258   -0.349062    2.118684
     10          1           0       -3.584837   -1.995079    1.067547
     11          7           0        1.340818    0.101516    0.017376
     12          6           0        1.986999   -0.357493   -1.126728
     13          6           0        1.928797   -0.550717    1.105661
     14          6           0        2.892281   -1.342231    0.554723
     15          1           0        1.618999   -0.350380    2.118767
     16          1           0        3.584270   -1.995590    1.067917
     17          7           0       -2.920360   -1.214740   -0.826511
     18          7           0        2.920893   -1.214288   -0.826127
     19          1           0        1.722203    0.004800   -2.109544
 ---------------------------------------------------------------------

 SCF Done:  E(RB3LYP) =  -999.774117975     A.U. after    1 cycles

 The electronic state is 1-A.
 Alpha  occ. eigenvalues --  -89.19290 -19.20396 -19.20384 -14.44113 -14.44113
 Alpha  occ. eigenvalues --  -14.34698 -14.34697 -10.27609 -10.27609 -10.25011
 Alpha  occ. eigenvalues --  -10.25011 -10.23098 -10.23098  -8.21404  -6.17914
 Alpha  occ. eigenvalues --   -6.17874  -6.17759  -1.18405  -1.06969  -1.04622
 Alpha  occ. eigenvalues --   -1.04594  -0.92200  -0.90499  -0.78602  -0.77771
 Alpha  occ. eigenvalues --   -0.73376  -0.66205  -0.63031  -0.62414  -0.60023
 Alpha  occ. eigenvalues --   -0.59553  -0.56343  -0.50917  -0.49530  -0.49234
 Alpha  occ. eigenvalues --   -0.47007  -0.46688  -0.46535  -0.45517  -0.44172
 Alpha  occ. eigenvalues --   -0.43980  -0.39985  -0.38465  -0.37527  -0.36516
 Alpha  occ. eigenvalues --   -0.33466  -0.30715  -0.29787  -0.29460  -0.26747
 Alpha  occ. eigenvalues --   -0.26037
 Alpha virt. eigenvalues --   -0.04412  -0.01214   0.01196   0.03224   0.04571
 Alpha virt. eigenvalues --    0.05943   0.06050   0.06846   0.10075   0.11354
 Alpha virt. eigenvalues --    0.11893   0.14655   0.14692   0.15422   0.16233

 Mulliken charges:
               1
     1  S    1.365254
     2  O   -0.492475
     3  O   -0.498744
     4  N   -0.546177
     5  C    0.223745
     6  C    0.028780
     7  H    0.198674
     8  C   -0.031449
     9  H    0.193427
    10  H    0.160936
    11  N   -0.546187
    12  C    0.223722
    13  C    0.028800
    14  C   -0.031453
    15  H    0.193411
    16  H    0.160934
    17  N   -0.414939
    18  N   -0.414937
    19  H    0.198680
 Sum of Mulliken charges =  -0.00000

 Dipole moment (field-independent basis, Debye):
    X=             -0.0007    Y=             -0.7855    Z=              2.2152  Tot=              2.3504
 Quadrupole moment (field-independent basis, Debye-Ang):
   XX=            -87.9372   YY=            -88.2389   ZZ=            -75.7330
   XY=             -0.0001   XZ=             -0.0036   YZ=             -6.7198

  Exact polarizability: 111.583   0.001  81.829  -0.012  -4.120 101.098
 Approx polarizability: 157.366   0.001 136.457  -0.025  -2.205 189.743

                      1                      2                      3
                      A                      A                      A
 Frequencies --     37.6790                46.8930                65.8564
 Red. masses --      3.9333                 8.2029                 4.1320
 Frc consts  --      0.0033                 0.0106                 0.0106
 IR Inten    --      0.7148                 0.2877                 0.7977

                      4                      5                      6
                      A                      A                      A
 Frequencies --    124.2359               175.9668               209.1176
 Red. masses --      7.2632                 7.2639                 7.3435
 Frc consts  --      0.0660                 0.1325                 0.1892
 IR Inten    --      5.2919                 6.7045                 0.2160

                      7                      8                      9
                      A                      A                      A
 Frequencies --    289.3258               342.0078               343.1618
 Red. masses --      6.8782                10.2657                10.6318
 Frc consts  --      0.3392                 0.7075                 0.7377
 IR Inten    --      0.1345                 0.0002                 0.3741

                     10                     11                     12
                      A                      A                      A
 Frequencies --    360.3446               485.4686               560.5236
 Red. masses --      7.1075                 8.9268                11.0698
 Frc consts  --      0.5438                 1.2396                 2.0492
 IR Inten    --      0.0382                 0.3259                56.8127

                     13                     14                     15
                      A                      A                      A
 Frequencies --    583.7212               610.7276               632.3922
 Red. masses --      4.1219                 5.0152                13.3155
 Frc consts  --      0.8275                 1.1021                 3.1375
 IR Inten    --     41.3915                42.0013               325.3326

                     16                     17                     18
                      A                      A                      A
 Frequencies --    659.7952               662.1356               719.2635
 Red. masses --      4.0151                 4.0975                 1.2219
 Frc consts  --      1.0298                 1.0584                 0.3725
 IR Inten    --     30.8736                26.0189                33.9927

                     19                     20                     21
                      A                      A                      A
 Frequencies --    729.5732               812.5676               817.4917
 Red. masses --      1.2074                 1.3176                 1.2937
 Frc consts  --      0.3786                 0.5126                 0.5094
 IR Inten    --     23.7565                31.3816                24.1644

                     22                     23                     24
                      A                      A                      A
 Frequencies --    877.0387               878.2115               897.4506
 Red. masses --      1.3495                 1.3432                 6.4908
 Frc consts  --      0.6116                 0.6104                 3.0801
 IR Inten    --      0.9844                 2.3790                 9.3607

                     25                     26                     27
                      A                      A                      A
 Frequencies --    898.0431               985.1934              1001.8871
 Red. masses --      6.5079                 6.3903                 5.6242
 Frc consts  --      3.0923                 3.6544                 3.3262
 IR Inten    --      7.7164                 6.2781                 0.0157

                     28                     29                     30
                      A                      A                      A
 Frequencies --   1056.5396              1073.2410              1133.4940
 Red. masses --      1.7145                 1.6137                 2.6426
 Frc consts  --      1.1276                 1.0952                 2.0004
 IR Inten    --    316.3361                63.5239                19.9806

                     31                     32                     33
                      A                      A                      A
 Frequencies --   1136.9863              1152.0607              1166.6784
 Red. masses --      1.8758                 9.5265                 2.1075
 Frc consts  --      1.4287                 7.4496                 1.6901
 IR Inten    --     55.8687                46.8341               156.2212

                     34                     35                     36
                      A                      A                      A
 Frequencies --   1184.5955              1270.7469              1281.6851
 Red. masses --      3.5922                 3.0560                 1.8419
 Frc consts  --      2.9700                 2.9075                 1.7827
 IR Inten    --    223.5180                 0.1139                15.1031

                     37                     38                     39
                      A                      A                      A
 Frequencies --   1291.4744              1295.8545              1389.3815
 Red. masses --      1.6376                 2.6354                 2.6959
 Frc consts  --      1.6093                 2.6074                 3.0662
 IR Inten    --      9.4896                 3.1074                 6.4972

                     40                     41                     42
                      A                      A                      A
 Frequencies --   1391.6740              1411.1239              1502.3208
 Red. masses --      2.8117                17.7780                 4.0312
 Frc consts  --      3.2084                20.8575                 5.3605
 IR Inten    --      1.7984               156.1110                61.9106

                     43                     44                     45
                      A                      A                      A
 Frequencies --   1510.9358              1577.3798              1578.6088
 Red. masses --      4.0504                 4.8931                 4.8899
 Frc consts  --      5.4480                 7.1731                 7.1796
 IR Inten    --     24.5609                17.8840                15.8353

                     46                     47                     48
                      A                      A                      A
 Frequencies --   3274.4797              3274.6035              3294.4926
 Red. masses --      1.0938                 1.0939                 1.0972
 Frc consts  --      6.9099                 6.9111                 7.0165
 IR Inten    --      0.5830                 6.9288                 0.4638

                     49                     50                     51
                      A                      A                      A
 Frequencies --   3295.4852              3316.4347              3317.5626
 Red. masses --      1.0973                 1.1028                 1.1026
 Frc consts  --      7.0214                 7.1463                 7.1502
 IR Inten    --      5.0154                 3.2569                 4.3503

 - Thermochemistry -
 -------------------
 Temperature     0.001 Kelvin.  Pressure   1.00000 Atm.
 Atom     1 has atomic number 16 and mass  31.97207

 Molecular mass:   198.02115 amu.
 Principal axes and moments of inertia in atomic units:
                           1         2         3
     Eigenvalues --  1464.414843110.012883434.12426
           X            1.00000  -0.00000  -0.00001
           Y            0.00000   0.99797  -0.06368
           Z            0.00001   0.06368   0.99797
 This molecule is an asymmetric top.
 Rotational symmetry number  1.
 Warning -- assumption of classical behavior for rotation
           may cause significant error
 Rotational temperatures (Kelvin)      0.05915     0.02785     0.02522
 Rotational constants (GHZ):           1.23240     0.58030     0.52553
 Zero-point vibrational energy     346820.8 (Joules/Mol)
                                   82.89216 (Kcal/Mol)
 Vibrational temperatures:     54.21    67.47    94.75   178.75   253.18
          (Kelvin)            300.87   416.28   492.07   493.73   518.46
                              698.48   806.47   839.84   878.70   909.87
                              949.30   952.67  1034.86  1049.69  1169.10
                             1176.19  1261.86  1263.55  1291.23  1292.08
                             1417.47  1441.49  1520.12  1544.15  1630.85
                             1635.87  1657.56  1678.59  1704.37  1828.32
                             1844.06  1858.14  1864.45  1999.01  2002.31
                             2030.29  2161.50  2173.90  2269.50  2271.27
                             4711.25  4711.42  4740.04  4741.47  4771.61
                             4773.23

 Zero-point correction=                           0.132097 (Hartree/Particle)
 Thermal correction to Energy=                    0.132097
 Thermal correction to Enthalpy=                  0.132097
 Thermal correction to Gibbs Free Energy=         0.132097
 Sum of electronic and zero-point Energies=           -999.642021
 Sum of electronic and thermal Energies=              -999.642021
 Sum of electronic and thermal Enthalpies=            -999.642021
 Sum of electronic and thermal Free Energies=         -999.642021

                     E (Thermal)             CV                S
                      KCal/Mol        Cal/Mol-Kelvin    Cal/Mol-Kelvin
 Total                   82.892              5.962            -27.317
 Electronic               0.000              0.000              0.000
 Translational            0.000              2.981            -20.869
 Rotational               0.000              2.981             -6.448
 Vibrational             82.892              0.000              0.000

 Optimization completed.
    -- Stationary point found.
 Normal termination of Gaussian 16 at Mon Oct 14 13:38:32 2019.
