 Gaussian 16, Revision A.03,
 Gaussian 16:  ES64L-G16RevA.03 25-Dec-2016

 --------------------------------------------------------------
 #P opt freq b3lyp/6-31g(d) geom=connectivity temperature=0.001
 --------------------------------------------------------------

 ----------------------
 imidazole n protonated
 ----------------------
 Symbolic Z-matrix:
 Charge =  1 Multiplicity = 1

 SCF Done:  E(RB3LYP) =  -1000.00101209     A.U. after   19 cycles
 SCF Done:  E(RB3LYP) =  -1000.06703696     A.U. after   13 cycles
 SCF Done:  E(RB3LYP) =  -1000.10506921     A.U. after   15 cycles
 SCF Done:  E(RB3LYP) =  -1000.12123977     A.U. after   13 cycles
 SCF Done:  E(RB3LYP) =  -1000.12289567     A.U. after   13 cycles
 SCF Done:  E(RB3LYP) =  -1000.12388599     A.U. after   12 cycles
 SCF Done:  E(RB3LYP) =  -1000.12399942     A.U. after   11 cycles
 SCF Done:  E(RB3LYP) =  -1000.12402018     A.U. after   11 cycles
 SCF Done:  E(RB3LYP) =  -1000.12404555     A.U. after   10 cycles
 SCF Done:  E(RB3LYP) =  -1000.12406599     A.U. after   11 cycles
 SCF Done:  E(RB3LYP) =  -1000.13540212     A.U. after   11 cycles
 SCF Done:  E(RB3LYP) =  -1000.13545913     A.U. after   11 cycles
 SCF Done:  E(RB3LYP) =  -1000.13548772     A.U. after   11 cycles
 SCF Done:  E(RB3LYP) =  -1000.13549255     A.U. after    9 cycles
 SCF Done:  E(RB3LYP) =  -1000.13549412     A.U. after    9 cycles
 SCF Done:  E(RB3LYP) =  -1000.13549507     A.U. after    9 cycles
 SCF Done:  E(RB3LYP) =  -1000.13549560     A.U. after    9 cycles
 SCF Done:  E(RB3LYP) =  -1000.13549587     A.U. after    8 cycles
 SCF Done:  E(RB3LYP) =  -1000.13549591     A.U. after    8 cycles
 Optimization completed.
    -- Stationary point found.
 Normal termination of Gaussian 16 at Mon Oct 14 13:37:51 2019.

 --------------------------------------------------------------------
 #P Geom=AllCheck Guess=TCheck SCRF=Check GenChk RB3LYP/6-31G(d) Freq
 --------------------------------------------------------------------

 Structure from the checkpoint file:  "01_p.chk"
 ----------------------
 imidazole n protonated
 ----------------------
 Charge =  1 Multiplicity = 1

                         Standard orientation:
 ---------------------------------------------------------------------
 Center     Atomic      Atomic             Coordinates (Angstroms)
 Number     Number       Type             X           Y           Z
 ---------------------------------------------------------------------
      1         16           0       -0.140043    1.163515    0.109722
      2          8           0       -0.095624    1.662463    1.460147
      3          8           0        0.016979    1.914116   -1.112508
      4          7           0       -1.413214    0.117174   -0.029768
      5          6           0       -2.097924   -0.521370    1.031436
      6          6           0       -1.937820   -0.415490   -1.228582
      7          1           0       -1.899728   -0.270068    2.064142
      8          6           0       -2.883371   -1.300903   -0.821206
      9          1           0       -1.615414   -0.062120   -2.195341
     10          1           0       -3.534307   -1.903133   -1.439420
     11          7           0        1.301341    0.044416    0.045061
     12          6           0        2.093585   -0.092072   -1.027452
     13          6           0        1.795785   -0.728195    1.088046
     14          6           0        2.910278   -1.353092    0.617054
     15          1           0        1.328103   -0.748551    2.060262
     16          1           0        3.595524   -2.036726    1.094580
     17          7           0       -2.968626   -1.354472    0.568296
     18          7           0        3.069756   -0.940249   -0.695938
     19          1           0        1.965691    0.412873   -1.973586
     20          1           0        3.821983   -1.222496   -1.316628
 ---------------------------------------------------------------------

 SCF Done:  E(RB3LYP) =  -1000.13549591     A.U. after    1 cycles

 The electronic state is 1-A.
 Alpha  occ. eigenvalues --  -89.33865 -19.35537 -19.35414 -14.62340 -14.62043
 Alpha  occ. eigenvalues --  -14.58160 -14.47345 -10.48908 -10.43495 -10.43324
 Alpha  occ. eigenvalues --  -10.40596 -10.37681 -10.35512  -8.36063  -6.32637
 Alpha  occ. eigenvalues --   -6.32474  -6.32382  -1.33287  -1.26014  -1.22126
 Alpha  occ. eigenvalues --   -1.17764  -1.12640  -1.05233  -0.98242  -0.91710
 Alpha  occ. eigenvalues --   -0.89267  -0.84433  -0.82970  -0.79184  -0.75420
 Alpha  occ. eigenvalues --   -0.75131  -0.72210  -0.70382  -0.67079  -0.66678
 Alpha  occ. eigenvalues --   -0.65576  -0.64767  -0.64206  -0.61553  -0.59533
 Alpha  occ. eigenvalues --   -0.59302  -0.56598  -0.54618  -0.54180  -0.52803
 Alpha  occ. eigenvalues --   -0.51886  -0.51186  -0.45788  -0.45093  -0.41797
 Alpha  occ. eigenvalues --   -0.39062
 Alpha virt. eigenvalues --   -0.21548  -0.19330  -0.16716  -0.14995  -0.10709
 Alpha virt. eigenvalues --   -0.09644  -0.08656  -0.07368  -0.06732  -0.05524
 Alpha virt. eigenvalues --   -0.03228  -0.03018  -0.00924  -0.00071   0.00796

 Mulliken charges:
               1
     1  S    1.406011
     2  O   -0.442408
     3  O   -0.454760
     4  N   -0.552192
     5  C    0.230204
     6  C    0.021892
     7  H    0.227644
     8  C   -0.013467
     9  H    0.219084
    10  H    0.204908
    11  N   -0.566412
    12  C    0.328898
    13  C    0.053940
    14  C    0.052160
    15  H    0.257021
    16  H    0.256510
    17  N   -0.376874
    18  N   -0.552116
    19  H    0.287027
    20  H    0.412928
 Sum of Mulliken charges =   1.00000

 Dipole moment (field-independent basis, Debye):
    X=              8.6799    Y=             -4.0023    Z=             -2.5709  Tot=              9.8979
 Quadrupole moment (field-independent basis, Debye-Ang):
   XX=            -41.6844   YY=            -77.5787   ZZ=            -64.4619
   XY=            -12.8004   XZ=             -1.6485   YZ=              1.0198

  Exact polarizability: 115.177   3.815  81.250  -2.647  -4.349  98.555
 Approx polarizability: 160.952  12.127 135.861 -11.974 -12.567 184.874

                      1                      2                      3
                      A                      A                      A
 Frequencies --     33.3606                46.2441                69.6737
 Red. masses --      3.7998                 6.5275                 4.2009
 Frc consts  --      0.0025                 0.0082                 0.0120
 IR Inten    --      1.3730                 2.5929                 1.2774

                      4                      5                      6
                      A                      A                      A
 Frequencies --    134.0278               165.5971               199.3127
 Red. masses --      6.4084                 6.5343                 7.2528
 Frc consts  --      0.0678                 0.1056                 0.1698
 IR Inten    --      1.9147                 2.9670                 2.8206

                      7                      8                      9
                      A                      A                      A
 Frequencies --    261.5738               302.4745               345.9621
 Red. masses --      7.0972                 8.6935                 7.8496
 Frc consts  --      0.2861                 0.4686                 0.5535
 IR Inten    --      6.2729                 1.5301                 0.9039

                     10                     11                     12
                      A                      A                      A
 Frequencies --    358.9786               472.4981               531.4795
 Red. masses --      8.9926                 8.6922                11.9311
 Frc consts  --      0.6828                 1.1433                 1.9857
 IR Inten    --      3.7044                 1.9374               146.6770

                     13                     14                     15
                      A                      A                      A
 Frequencies --    578.7142               602.0340               623.5614
 Red. masses --      4.7120                 8.3768                 3.5489
 Frc consts  --      0.9298                 1.7888                 0.8130
 IR Inten    --     23.9510               180.9590                 9.1186

                     16                     17                     18
                      A                      A                      A
 Frequencies --    642.7766               645.6773               707.2540
 Red. masses --      4.2793                 3.9768                 1.1798
 Frc consts  --      1.0417                 0.9768                 0.3477
 IR Inten    --    156.4570                23.1126                74.1884

                     19                     20                     21
                      A                      A                      A
 Frequencies --    717.4352               750.9613               811.6750
 Red. masses --      1.2079                 1.2064                 1.2989
 Frc consts  --      0.3663                 0.4008                 0.5042
 IR Inten    --     31.4722                63.4808                38.5393

                     22                     23                     24
                      A                      A                      A
 Frequencies --    852.3157               877.5431               878.0204
 Red. masses --      1.3611                 1.5299                 4.0638
 Frc consts  --      0.5826                 0.6941                 1.8458
 IR Inten    --      6.7884                 0.9533                 3.1193

                     25                     26                     27
                      A                      A                      A
 Frequencies --    905.1518               925.9962               969.8093
 Red. masses --      1.3635                 5.3837                 5.4859
 Frc consts  --      0.6582                 2.7199                 3.0400
 IR Inten    --      2.5439                 5.5586                29.8431

                     28                     29                     30
                      A                      A                      A
 Frequencies --    982.1182              1049.3310              1074.9690
 Red. masses --      4.6201                 2.1183                 1.6188
 Frc consts  --      2.6256                 1.3742                 1.1021
 IR Inten    --      8.9318               236.9651                87.2850

                     31                     32                     33
                      A                      A                      A
 Frequencies --   1121.3833              1129.4333              1150.8421
 Red. masses --      3.3773                 1.4514                 2.6726
 Frc consts  --      2.5022                 1.0908                 2.0855
 IR Inten    --     59.4026                14.9735                 9.6797

                     34                     35                     36
                      A                      A                      A
 Frequencies --   1153.3241              1187.5095              1224.9449
 Red. masses --      1.7969                 3.9460                 1.9538
 Frc consts  --      1.4082                 3.2785                 1.7273
 IR Inten    --     65.2869               268.9670                43.0303

                     37                     38                     39
                      A                      A                      A
 Frequencies --   1232.5888              1285.0726              1304.1021
 Red. masses --      6.1721                 1.2027                 1.5844
 Frc consts  --      5.5249                 1.1702                 1.5876
 IR Inten    --     19.5477                 8.2106                14.6853

                     40                     41                     42
                      A                      A                      A
 Frequencies --   1381.2580              1382.4873              1444.0239
 Red. masses --      3.0413                 2.7349                17.1267
 Frc consts  --      3.4187                 3.0797                21.0412
 IR Inten    --     11.9871                 2.0183               124.3309

                     43                     44                     45
                      A                      A                      A
 Frequencies --   1479.6949              1520.9829              1547.6573
 Red. masses --      2.8920                 4.9342                 3.7405
 Frc consts  --      3.7308                 6.7254                 5.2788
 IR Inten    --      6.5360                34.9391                56.3098

                     46                     47                     48
                      A                      A                      A
 Frequencies --   1598.8055              1613.2592              3286.6143
 Red. masses --      5.4506                 3.4257                 1.0938
 Frc consts  --      8.2089                 5.2530                 6.9612
 IR Inten    --     23.2494                42.7765                 4.0564

                     49                     50                     51
                      A                      A                      A
 Frequencies --   3292.6681              3310.0371              3316.0747
 Red. masses --      1.0989                 1.0941                 1.1018
 Frc consts  --      7.0198                 7.0629                 7.1381
 IR Inten    --      8.8539                26.3187                45.0695

                     52                     53                     54
                      A                      A                      A
 Frequencies --   3317.6636              3326.7429              3606.6848
 Red. masses --      1.1046                 1.1100                 1.0838
 Frc consts  --      7.1632                 7.2382                 8.3064
 IR Inten    --     18.3658                11.0407               214.9713

 - Thermochemistry -
 -------------------
 Temperature     0.001 Kelvin.  Pressure   1.00000 Atm.
 Atom     1 has atomic number 16 and mass  31.97207

 Molecular mass:   199.02897 amu.
 Principal axes and moments of inertia in atomic units:
                           1         2         3
     Eigenvalues --  1452.755793246.378193567.73419
           X            0.99994  -0.00975   0.00417
           Y            0.00978   0.99993  -0.00688
           Z           -0.00410   0.00692   0.99997
 This molecule is an asymmetric top.
 Rotational symmetry number  1.
 Warning -- assumption of classical behavior for rotation
           may cause significant error
 Rotational temperatures (Kelvin)      0.05962     0.02668     0.02428
 Rotational constants (GHZ):           1.24229     0.55592     0.50585
 Zero-point vibrational energy     381192.3 (Joules/Mol)
                                   91.10715 (Kcal/Mol)
 Vibrational temperatures:     48.00    66.53   100.24   192.84   238.26
          (Kelvin)            286.77   376.35   435.19   497.76   516.49
                              679.82   764.68   832.64   866.19   897.17
                              924.81   928.99  1017.58  1032.23  1080.47
                             1167.82  1226.29  1262.59  1263.28  1302.31
                             1332.30  1395.34  1413.05  1509.75  1546.64
                             1613.42  1625.00  1655.81  1659.38  1708.56
                             1762.42  1773.42  1848.93  1876.31  1987.32
                             1989.09  2077.63  2128.95  2188.36  2226.73
                             2300.32  2321.12  4728.70  4737.42  4762.41
                             4771.09  4773.38  4786.44  5189.21

 Zero-point correction=                           0.145188 (Hartree/Particle)
 Thermal correction to Energy=                    0.145189
 Thermal correction to Enthalpy=                  0.145189
 Thermal correction to Gibbs Free Energy=         0.145189
 Sum of electronic and zero-point Energies=           -999.990307
 Sum of electronic and thermal Energies=              -999.990307
 Sum of electronic and thermal Enthalpies=            -999.990307
 Sum of electronic and thermal Free Energies=         -999.990307

                     E (Thermal)             CV                S
                      KCal/Mol        Cal/Mol-Kelvin    Cal/Mol-Kelvin
 Total                   91.107              5.962            -27.230
 Electronic               0.000              0.000              0.000
 Translational            0.000              2.981            -20.854
 Rotational               0.000              2.981             -6.376
 Vibrational             91.107              0.000              0.000

 Optimization completed.
    -- Stationary point found.
 Normal termination of Gaussian 16 at Mon Oct 14 13:38:32 2019.
