 Gaussian 16, Revision A.03,
 Gaussian 16:  ES64L-G16RevA.03 25-Dec-2016

 --------------------------------------------------------------
 #p opt freq b3lyp/6-31g(d) geom=connectivity temperature=0.001
 --------------------------------------------------------------

 -----------------
 Nitro Quinoline 8
 -----------------
 Symbolic Z-matrix:
 Charge =  0 Multiplicity = 1

 SCF Done:  E(RB3LYP) =  -606.342872866     A.U. after   17 cycles
 SCF Done:  E(RB3LYP) =  -606.387535943     A.U. after   15 cycles
 SCF Done:  E(RB3LYP) =  -606.407571434     A.U. after   16 cycles
 SCF Done:  E(RB3LYP) =  -606.414023933     A.U. after   16 cycles
 SCF Done:  E(RB3LYP) =  -606.406268604     A.U. after   17 cycles
 SCF Done:  E(RB3LYP) =  -606.417410975     A.U. after   15 cycles
 SCF Done:  E(RB3LYP) =  -606.418462555     A.U. after   15 cycles
 SCF Done:  E(RB3LYP) =  -606.419200975     A.U. after   17 cycles
 SCF Done:  E(RB3LYP) =  -606.419390035     A.U. after   14 cycles
 SCF Done:  E(RB3LYP) =  -606.419464595     A.U. after   13 cycles
 SCF Done:  E(RB3LYP) =  -606.419508513     A.U. after   14 cycles
 SCF Done:  E(RB3LYP) =  -606.419509546     A.U. after   10 cycles
 SCF Done:  E(RB3LYP) =  -606.419512732     A.U. after   10 cycles
 Optimization completed.
    -- Stationary point found.
 Normal termination of Gaussian 16 at Mon Oct 14 13:36:16 2019.

 --------------------------------------------------------------------
 #P Geom=AllCheck Guess=TCheck SCRF=Check GenChk RB3LYP/6-31G(d) Freq
 --------------------------------------------------------------------

 Structure from the checkpoint file:  "02.chk"
 -----------------
 Nitro Quinoline 8
 -----------------
 Charge =  0 Multiplicity = 1

                         Standard orientation:
 ---------------------------------------------------------------------
 Center     Atomic      Atomic             Coordinates (Angstroms)
 Number     Number       Type             X           Y           Z
 ---------------------------------------------------------------------
      1          6           0       -0.334570    2.554948   -0.078744
      2          6           0       -1.358117    1.584003   -0.024398
      3          6           0       -1.038822    0.245638   -0.007562
      4          6           0        0.313110   -0.210706    0.013146
      5          6           0        1.336239    0.792489   -0.033598
      6          6           0        0.985931    2.166232   -0.091356
      7          7           0        0.590796   -1.536529    0.125142
      8          6           0        1.856537   -1.898874    0.155646
      9          6           0        2.948518   -0.997896    0.079606
     10          6           0        2.683282    0.346712   -0.006822
     11          7           0       -2.159752   -0.708747   -0.029334
     12          8           0       -2.082166   -1.666690   -0.788560
     13          8           0       -3.123471   -0.446485    0.693968
     14          1           0       -0.600484    3.606778   -0.113788
     15          1           0       -2.401917    1.876227   -0.005525
     16          1           0        1.779786    2.907654   -0.135989
     17          1           0        2.045749   -2.967314    0.251489
     18          1           0        3.966088   -1.375259    0.103196
     19          1           0        3.485917    1.078977   -0.048804
 ---------------------------------------------------------------------

 SCF Done:  E(RB3LYP) =  -606.419512732     A.U. after    1 cycles

 The electronic state is 1-A.
 Alpha  occ. eigenvalues --  -19.17593 -19.17349 -14.56528 -14.34565 -10.25622
 Alpha  occ. eigenvalues --  -10.25567 -10.24356 -10.22963 -10.22881 -10.22688
 Alpha  occ. eigenvalues --  -10.22443 -10.22152 -10.21800  -1.21769  -1.04493
 Alpha  occ. eigenvalues --   -0.96427  -0.88172  -0.83729  -0.79215  -0.77630
 Alpha  occ. eigenvalues --   -0.70370  -0.66310  -0.65543  -0.59702  -0.55895
 Alpha  occ. eigenvalues --   -0.54746  -0.53478  -0.51497  -0.50640  -0.49893
 Alpha  occ. eigenvalues --   -0.47640  -0.45139  -0.43696  -0.43171  -0.42217
 Alpha  occ. eigenvalues --   -0.40517  -0.37741  -0.36519  -0.33102  -0.30599
 Alpha  occ. eigenvalues --   -0.29874  -0.28760  -0.27389  -0.26277  -0.25375
 Alpha virt. eigenvalues --   -0.08583  -0.05419  -0.03727   0.00803   0.07001
 Alpha virt. eigenvalues --    0.07687   0.09126   0.12292   0.15128   0.15322
 Alpha virt. eigenvalues --    0.16546   0.17158   0.18224   0.22294   0.23342

 Mulliken charges:
               1
     1  C   -0.143088
     2  C   -0.146264
     3  C    0.262282
     4  C    0.242839
     5  C    0.146899
     6  C   -0.174804
     7  N   -0.483424
     8  C    0.050311
     9  C   -0.149909
    10  C   -0.145393
    11  N    0.350393
    12  O   -0.355479
    13  O   -0.389328
    14  H    0.152339
    15  H    0.179428
    16  H    0.146844
    17  H    0.155497
    18  H    0.149349
    19  H    0.151507
 Sum of Mulliken charges =  -0.00000

 Dipole moment (field-independent basis, Debye):
    X=              5.0604    Y=              3.7222    Z=             -0.1155  Tot=              6.2829
 Quadrupole moment (field-independent basis, Debye-Ang):
   XX=            -70.1898   YY=            -66.6486   ZZ=            -75.6991
   XY=             -7.6958   XZ=              1.6205   YZ=             -2.0825

  Exact polarizability: 149.002 -14.527 138.653  -2.957   0.177  44.563
 Approx polarizability: 254.920 -30.835 259.977 -13.431   9.292  82.248

                      1                      2                      3
                      A                      A                      A
 Frequencies --     59.4492               101.1883               175.3926
 Red. masses --     12.9650                 6.3035                 4.9604
 Frc consts  --      0.0270                 0.0380                 0.0899
 IR Inten    --      0.5947                 0.0448                 3.5469

                      4                      5                      6
                      A                      A                      A
 Frequencies --    190.7524               212.2520               353.4981
 Red. masses --      6.9569                 4.6419                 8.1225
 Frc consts  --      0.1491                 0.1232                 0.5980
 IR Inten    --      0.8716                 0.1431                 1.5833

                      7                      8                      9
                      A                      A                      A
 Frequencies --    369.2367               416.9935               465.2872
 Red. masses --      6.3882                 4.6911                 4.7189
 Frc consts  --      0.5131                 0.4806                 0.6019
 IR Inten    --      0.5584                 3.8405                 1.0819

                     10                     11                     12
                      A                      A                      A
 Frequencies --    479.2785               524.1847               547.7270
 Red. masses --      3.3605                 5.6577                 7.2571
 Frc consts  --      0.4548                 0.9159                 1.2828
 IR Inten    --      0.5620                 2.6976                 0.5319

                     13                     14                     15
                      A                      A                      A
 Frequencies --    603.5102               651.4135               661.3152
 Red. masses --      4.5538                 4.1211                 7.5300
 Frc consts  --      0.9772                 1.0303                 1.9403
 IR Inten    --      1.0898                 0.9159                18.2242

                     16                     17                     18
                      A                      A                      A
 Frequencies --    742.9884               781.9933               803.2156
 Red. masses --      3.3911                 1.7822                 6.3055
 Frc consts  --      1.1030                 0.6421                 2.3968
 IR Inten    --      7.9337                11.0365                20.4978

                     19                     20                     21
                      A                      A                      A
 Frequencies --    811.4483               827.9879               852.4124
 Red. masses --      1.9932                 5.4067                 2.4082
 Frc consts  --      0.7733                 2.1839                 1.0309
 IR Inten    --     39.9821                 0.1171                21.0754

                     22                     23                     24
                      A                      A                      A
 Frequencies --    890.5545               940.0751               974.5511
 Red. masses --      7.1924                 1.4077                 1.3881
 Frc consts  --      3.3608                 0.7329                 0.7768
 IR Inten    --     26.7313                 0.8313                 0.3449

                     25                     26                     27
                      A                      A                      A
 Frequencies --    985.3081              1001.0035              1029.0452
 Red. masses --      1.3219                 1.3511                 6.2007
 Frc consts  --      0.7561                 0.7976                 3.8686
 IR Inten    --      0.7281                 0.9756                 0.8752

                     28                     29                     30
                      A                      A                      A
 Frequencies --   1060.7971              1103.5789              1167.3805
 Red. masses --      2.6053                 2.0279                 1.3125
 Frc consts  --      1.7273                 1.4551                 1.0538
 IR Inten    --      3.3846                 5.8414                 3.3919

                     31                     32                     33
                      A                      A                      A
 Frequencies --   1190.1504              1243.6216              1252.4972
 Red. masses --      1.3340                 2.0786                 2.1584
 Frc consts  --      1.1133                 1.8941                 1.9950
 IR Inten    --      1.5256                 2.5927                 2.5112

                     34                     35                     36
                      A                      A                      A
 Frequencies --   1281.8171              1372.5479              1395.0593
 Red. masses --      1.8667                 4.2627                 4.9982
 Frc consts  --      1.8071                 4.7314                 5.7313
 IR Inten    --      4.2202                 5.6833                 2.1611

                     37                     38                     39
                      A                      A                      A
 Frequencies --   1407.6924              1433.4385              1476.0414
 Red. masses --      8.5863                 2.0407                 2.0933
 Frc consts  --     10.0247                 2.4705                 2.6871
 IR Inten    --    241.3215                 1.4696                 6.9173

                     40                     41                     42
                      A                      A                      A
 Frequencies --   1509.2604              1548.4128              1614.0171
 Red. masses --      2.6992                 3.6770                 7.0492
 Frc consts  --      3.6226                 5.1941                10.8195
 IR Inten    --      2.9178                18.2169                37.3863

                     43                     44                     45
                      A                      A                      A
 Frequencies --   1640.9652              1659.4650              1679.7071
 Red. masses --     10.4713                 5.6454                 7.1707
 Frc consts  --     16.6130                 9.1596                11.9200
 IR Inten    --    173.6745                13.3144                47.6867

                     46                     47                     48
                      A                      A                      A
 Frequencies --   3171.3441              3188.8657              3191.6373
 Red. masses --      1.0897                 1.0891                 1.0890
 Frc consts  --      6.4570                 6.5250                 6.5358
 IR Inten    --     22.4123                 0.1671                11.9977

                     49                     50                     51
                      A                      A                      A
 Frequencies --   3214.8514              3217.8649              3237.6094
 Red. masses --      1.0932                 1.0962                 1.0932
 Frc consts  --      6.6567                 6.6875                 6.7514
 IR Inten    --     13.9862                16.2952                 0.5358

 - Thermochemistry -
 -------------------
 Temperature     0.001 Kelvin.  Pressure   1.00000 Atm.
 Atom     1 has atomic number  6 and mass  12.00000

 Molecular mass:   174.04293 amu.
 Principal axes and moments of inertia in atomic units:
                           1         2         3
     Eigenvalues --  1332.647192351.563373551.76171
           X            0.99951  -0.03129   0.00102
           Y            0.03129   0.99950  -0.00519
           Z           -0.00086   0.00522   0.99999
 This molecule is an asymmetric top.
 Rotational symmetry number  1.
 Warning -- assumption of classical behavior for rotation
           may cause significant error
 Rotational temperatures (Kelvin)      0.06499     0.03683     0.02439
 Rotational constants (GHZ):           1.35425     0.76746     0.50813
 Zero-point vibrational energy     363130.5 (Joules/Mol)
                                   86.79028 (Kcal/Mol)
 Vibrational temperatures:     85.53   145.59   252.35   274.45   305.38
          (Kelvin)            508.60   531.25   599.96   669.44   689.57
                              754.18   788.06   868.32   937.24   951.49
                             1068.99  1125.11  1155.65  1167.49  1191.29
                             1226.43  1281.31  1352.56  1402.16  1417.64
                             1440.22  1480.57  1526.25  1587.80  1679.60
                             1712.36  1789.29  1802.06  1844.25  1974.79
                             2007.18  2025.36  2062.40  2123.69  2171.49
                             2227.82  2322.21  2360.98  2387.60  2416.72
                             4562.86  4588.07  4592.05  4625.45  4629.79
                             4658.20

 Zero-point correction=                           0.138309 (Hartree/Particle)
 Thermal correction to Energy=                    0.138309
 Thermal correction to Enthalpy=                  0.138309
 Thermal correction to Gibbs Free Energy=         0.138309
 Sum of electronic and zero-point Energies=           -606.281204
 Sum of electronic and thermal Energies=              -606.281204
 Sum of electronic and thermal Enthalpies=            -606.281204
 Sum of electronic and thermal Free Energies=         -606.281204

                     E (Thermal)             CV                S
                      KCal/Mol        Cal/Mol-Kelvin    Cal/Mol-Kelvin
 Total                   86.790              5.962            -28.040
 Electronic               0.000              0.000              0.000
 Translational            0.000              2.981            -21.254
 Rotational               0.000              2.981             -6.786
 Vibrational             86.790              0.000              0.000

 Optimization completed.
    -- Stationary point found.
 Normal termination of Gaussian 16 at Mon Oct 14 13:36:56 2019.
