 Gaussian 16, Revision A.03,
 Gaussian 16:  ES64L-G16RevA.03 25-Dec-2016

 --------------------------------------------------------------
 #p opt freq b3lyp/6-31g(d) geom=connectivity temperature=0.001
 --------------------------------------------------------------

 ----------------------
 Nitro Quinoline 8 Plus
 ----------------------
 Symbolic Z-matrix:
 Charge =  1 Multiplicity = 1

 SCF Done:  E(RB3LYP) =  -606.717482540     A.U. after   17 cycles
 SCF Done:  E(RB3LYP) =  -606.765747970     A.U. after   15 cycles
 SCF Done:  E(RB3LYP) =  -606.774636225     A.U. after   15 cycles
 SCF Done:  E(RB3LYP) =  -606.798979871     A.U. after   15 cycles
 SCF Done:  E(RB3LYP) =  -606.797409564     A.U. after   15 cycles
 SCF Done:  E(RB3LYP) =  -606.790844459     A.U. after   15 cycles
 SCF Done:  E(RB3LYP) =  -606.788620104     A.U. after   15 cycles
 SCF Done:  E(RB3LYP) =  -606.800063590     A.U. after   12 cycles
 SCF Done:  E(RB3LYP) =  -606.801758510     A.U. after   14 cycles
 SCF Done:  E(RB3LYP) =  -606.801802178     A.U. after   12 cycles
 SCF Done:  E(RB3LYP) =  -606.801895084     A.U. after   12 cycles
 SCF Done:  E(RB3LYP) =  -606.801908134     A.U. after   10 cycles
 SCF Done:  E(RB3LYP) =  -606.801908308     A.U. after    9 cycles
 SCF Done:  E(RB3LYP) =  -606.801909725     A.U. after    9 cycles
 Optimization completed.
    -- Stationary point found.
 Normal termination of Gaussian 16 at Mon Oct 14 13:36:30 2019.

 --------------------------------------------------------------------
 #P Geom=AllCheck Guess=TCheck SCRF=Check GenChk RB3LYP/6-31G(d) Freq
 --------------------------------------------------------------------

 Structure from the checkpoint file:  "02_p.chk"
 ----------------------
 Nitro Quinoline 8 Plus
 ----------------------
 Charge =  1 Multiplicity = 1

                         Standard orientation:
 ---------------------------------------------------------------------
 Center     Atomic      Atomic             Coordinates (Angstroms)
 Number     Number       Type             X           Y           Z
 ---------------------------------------------------------------------
      1          6           0        0.417820    2.576330    0.000332
      2          6           0        1.413051    1.575946   -0.000022
      3          6           0        1.072871    0.237641   -0.000201
      4          6           0       -0.294559   -0.149070   -0.000282
      5          6           0       -1.302102    0.861711   -0.000001
      6          6           0       -0.914066    2.229018    0.000342
      7          7           0       -0.702864   -1.458156    0.000028
      8          6           0       -1.982977   -1.838437    0.000308
      9          6           0       -3.003283   -0.885395   -0.000178
     10          6           0       -2.658946    0.454789   -0.000310
     11          7           0        2.167133   -0.750906   -0.000099
     12          8           0        1.857302   -1.954881    0.000532
     13          8           0        3.309785   -0.335837   -0.000465
     14          1           0        0.715733    3.619180    0.000444
     15          1           0        2.464769    1.839487   -0.000000
     16          1           0       -1.686623    2.991926    0.000379
     17          1           0       -2.167285   -2.907006    0.000571
     18          1           0       -4.037610   -1.208142   -0.000565
     19          1           0       -3.433718    1.216383   -0.000830
     20          1           0        0.071306   -2.137838    0.000034
 ---------------------------------------------------------------------

 SCF Done:  E(RB3LYP) =  -606.801909725     A.U. after    1 cycles

 The electronic state is 1-A.
 Alpha  occ. eigenvalues --  -19.34253 -19.34139 -14.73445 -14.60823 -10.45485
 Alpha  occ. eigenvalues --  -10.45160 -10.42961 -10.41189 -10.40887 -10.39542
 Alpha  occ. eigenvalues --  -10.39299 -10.38882 -10.37889  -1.38626  -1.21621
 Alpha  occ. eigenvalues --   -1.19507  -1.06120  -1.02139  -0.96864  -0.96233
 Alpha  occ. eigenvalues --   -0.87785  -0.85948  -0.83811  -0.80498  -0.74082
 Alpha  occ. eigenvalues --   -0.72752  -0.71520  -0.70369  -0.69208  -0.66766
 Alpha  occ. eigenvalues --   -0.66063  -0.64515  -0.63447  -0.63159  -0.60502
 Alpha  occ. eigenvalues --   -0.57813  -0.55637  -0.54749  -0.54574  -0.50807
 Alpha  occ. eigenvalues --   -0.46729  -0.46548  -0.45284  -0.45055  -0.43452
 Alpha virt. eigenvalues --   -0.27277  -0.23522  -0.21071  -0.15689  -0.10061
 Alpha virt. eigenvalues --   -0.08010  -0.07006  -0.04762  -0.01716  -0.00181
 Alpha virt. eigenvalues --    0.00175   0.00885   0.02328   0.04040   0.04926

 Mulliken charges:
               1
     1  C   -0.117578
     2  C   -0.150693
     3  C    0.307503
     4  C    0.324906
     5  C    0.125088
     6  C   -0.160360
     7  N   -0.667531
     8  C    0.146831
     9  C   -0.170604
    10  C   -0.093849
    11  N    0.405521
    12  O   -0.420524
    13  O   -0.324493
    14  H    0.215174
    15  H    0.243536
    16  H    0.207635
    17  H    0.252476
    18  H    0.227821
    19  H    0.222746
    20  H    0.426395
 Sum of Mulliken charges =   1.00000

 Dipole moment (field-independent basis, Debye):
    X=             -6.9716    Y=              1.2887    Z=             -0.0005  Tot=              7.0897
 Quadrupole moment (field-independent basis, Debye-Ang):
   XX=            -49.9456   YY=            -45.9913   ZZ=            -72.1368
   XY=              9.9083   XZ=              0.0024   YZ=              0.0013

  Exact polarizability: 154.210  14.062 138.578  -0.000  -0.002  36.659
 Approx polarizability: 275.523  36.752 267.743  -0.014  -0.012  58.202

                      1                      2                      3
                      A                      A                      A
 Frequencies --     62.9035               122.0268               181.3170
 Red. masses --     12.0179                 5.3262                 4.3325
 Frc consts  --      0.0280                 0.0467                 0.0839
 IR Inten    --      0.0014                 3.8264                 2.2649

                      4                      5                      6
                      A                      A                      A
 Frequencies --    229.1786               249.6636               370.6422
 Red. masses --      4.2110                 7.1616                 7.8344
 Frc consts  --      0.1303                 0.2630                 0.6341
 IR Inten    --      0.2528                15.2754                 2.0326

                      7                      8                      9
                      A                      A                      A
 Frequencies --    385.4519               397.2900               469.7496
 Red. masses --      8.8253                 3.7430                 6.0258
 Frc consts  --      0.7725                 0.3481                 0.7834
 IR Inten    --      0.5859                 1.0624                 2.6207

                     10                     11                     12
                      A                      A                      A
 Frequencies --    471.8524               512.9535               546.2714
 Red. masses --      3.2343                 3.9722                 7.2354
 Frc consts  --      0.4243                 0.6158                 1.2721
 IR Inten    --      2.1334                17.1617                 0.6135

                     13                     14                     15
                      A                      A                      A
 Frequencies --    599.3724               610.1515               663.6502
 Red. masses --      7.1225                 3.1848                 7.0322
 Frc consts  --      1.5076                 0.6986                 1.8248
 IR Inten    --      4.5938                 0.8174                 5.2859

                     16                     17                     18
                      A                      A                      A
 Frequencies --    733.4477               761.6971               799.5384
 Red. masses --      5.4687                 3.2353                 1.3357
 Frc consts  --      1.7333                 1.1059                 0.5031
 IR Inten    --      5.1280                32.6025                15.6236

                     19                     20                     21
                      A                      A                      A
 Frequencies --    810.3561               821.9913               855.0664
 Red. masses --      6.3895                 6.3980                 1.6049
 Frc consts  --      2.4721                 2.5470                 0.6914
 IR Inten    --     13.3025                 4.2632                71.3106

                     22                     23                     24
                      A                      A                      A
 Frequencies --    890.7263               927.3907               983.2077
 Red. masses --      6.5770                 1.2396                 1.3416
 Frc consts  --      3.0745                 0.6281                 0.7641
 IR Inten    --     27.1147                21.5406                 1.7414

                     25                     26                     27
                      A                      A                      A
 Frequencies --   1010.1860              1027.8620              1030.8326
 Red. masses --      1.3070                 1.3394                 6.4144
 Frc consts  --      0.7858                 0.8337                 4.0159
 IR Inten    --     15.9301                 2.4545                22.4157

                     28                     29                     30
                      A                      A                      A
 Frequencies --   1033.4127              1080.6367              1108.2894
 Red. masses --      1.3807                 2.3597                 2.0027
 Frc consts  --      0.8688                 1.6235                 1.4493
 IR Inten    --      0.3249                 9.1490                 4.2905

                     31                     32                     33
                      A                      A                      A
 Frequencies --   1176.8930              1201.8419              1227.5113
 Red. masses --      1.4498                 1.3443                 1.5492
 Frc consts  --      1.1831                 1.1441                 1.3754
 IR Inten    --      1.0359                 8.4527                44.6327

                     34                     35                     36
                      A                      A                      A
 Frequencies --   1255.6556              1265.4999              1311.9791
 Red. masses --      1.5889                 2.0301                 2.1389
 Frc consts  --      1.4760                 1.9156                 2.1692
 IR Inten    --      7.5804                22.6694                64.8774

                     37                     38                     39
                      A                      A                      A
 Frequencies --   1381.5819              1397.5807              1430.8666
 Red. masses --      6.0818                 7.3711                 2.9298
 Frc consts  --      6.8397                 8.4827                 3.5342
 IR Inten    --    115.5821                40.3869                18.6706

                     40                     41                     42
                      A                      A                      A
 Frequencies --   1449.5004              1496.6303              1512.7515
 Red. masses --      2.1561                 2.3960                 2.2803
 Frc consts  --      2.6691                 3.1620                 3.0746
 IR Inten    --     44.6315                26.8369                19.6752

                     43                     44                     45
                      A                      A                      A
 Frequencies --   1590.4739              1626.4472              1635.4509
 Red. masses --      3.5315                 4.9437                 5.6614
 Frc consts  --      5.2634                 7.7052                 8.9218
 IR Inten    --    186.2062                40.1151                68.4152

                     46                     47                     48
                      A                      A                      A
 Frequencies --   1685.1813              1689.0747              3218.6182
 Red. masses --      8.4336                 4.6419                 1.0917
 Frc consts  --     14.1110                 7.8026                 6.6634
 IR Inten    --    131.9440                 8.9854                 0.1562

                     49                     50                     51
                      A                      A                      A
 Frequencies --   3221.1225              3237.8594              3247.8198
 Red. masses --      1.0914                 1.0941                 1.0930
 Frc consts  --      6.6719                 6.7582                 6.7928
 IR Inten    --      0.3341                 1.0946                 2.8018

                     52                     53                     54
                      A                      A                      A
 Frequencies --   3249.1620              3257.6308              3333.5729
 Red. masses --      1.0939                 1.0985                 1.0817
 Frc consts  --      6.8041                 6.8686                 7.0822
 IR Inten    --     16.0353                10.6925               354.8874

 - Thermochemistry -
 -------------------
 Temperature     0.001 Kelvin.  Pressure   1.00000 Atm.
 Atom     1 has atomic number  6 and mass  12.00000

 Molecular mass:   175.05075 amu.
 Principal axes and moments of inertia in atomic units:
                           1         2         3
     Eigenvalues --  1333.303642346.475413679.77893
           X            0.99953   0.03061   0.00001
           Y           -0.03061   0.99953   0.00000
           Z           -0.00001  -0.00000   1.00000
 This molecule is an asymmetric top.
 Rotational symmetry number  1.
 Warning -- assumption of classical behavior for rotation
           may cause significant error
 Rotational temperatures (Kelvin)      0.06496     0.03691     0.02354
 Rotational constants (GHZ):           1.35359     0.76913     0.49045
 Zero-point vibrational energy     399838.8 (Joules/Mol)
                                   95.56376 (Kcal/Mol)
 Vibrational temperatures:     90.50   175.57   260.87   329.74   359.21
          (Kelvin)            533.27   554.58   571.61   675.86   678.89
                              738.03   785.96   862.36   877.87   954.84
                             1055.27  1095.91  1150.36  1165.92  1182.66
                             1230.25  1281.56  1334.31  1414.62  1453.43
                             1478.86  1483.14  1486.85  1554.80  1594.58
                             1693.29  1729.18  1766.11  1806.61  1820.77
                             1887.65  1987.79  2010.81  2058.70  2085.51
                             2153.32  2176.51  2288.34  2340.09  2353.05
                             2424.60  2430.20  4630.87  4634.48  4658.56
                             4672.89  4674.82  4687.00  4796.27

 Zero-point correction=                           0.152291 (Hartree/Particle)
 Thermal correction to Energy=                    0.152291
 Thermal correction to Enthalpy=                  0.152291
 Thermal correction to Gibbs Free Energy=         0.152291
 Sum of electronic and zero-point Energies=           -606.649619
 Sum of electronic and thermal Energies=              -606.649619
 Sum of electronic and thermal Enthalpies=            -606.649619
 Sum of electronic and thermal Free Energies=         -606.649619

                     E (Thermal)             CV                S
                      KCal/Mol        Cal/Mol-Kelvin    Cal/Mol-Kelvin
 Total                   95.564              5.962            -27.989
 Electronic               0.000              0.000              0.000
 Translational            0.000              2.981            -21.237
 Rotational               0.000              2.981             -6.753
 Vibrational             95.564              0.000              0.000

 Optimization completed.
    -- Stationary point found.
 Normal termination of Gaussian 16 at Mon Oct 14 13:37:12 2019.
