 Gaussian 16, Revision A.03,
 Gaussian 16:  ES64L-G16RevA.03 25-Dec-2016

 --------------------------------------------------------------
 #P opt freq b3lyp/6-31g(d) geom=connectivity temperature=0.001
 --------------------------------------------------------------

 -----------
 albendazole
 -----------
 Symbolic Z-matrix:
 Charge =  0 Multiplicity = 1

 SCF Done:  E(RB3LYP) =  -1179.18739765     A.U. after   15 cycles
 SCF Done:  E(RB3LYP) =  -1179.21972200     A.U. after   13 cycles
 SCF Done:  E(RB3LYP) =  -1179.22753689     A.U. after   12 cycles
 SCF Done:  E(RB3LYP) =  -1179.22942989     A.U. after   12 cycles
 SCF Done:  E(RB3LYP) =  -1179.23031870     A.U. after   12 cycles
 SCF Done:  E(RB3LYP) =  -1179.23025818     A.U. after   11 cycles
 SCF Done:  E(RB3LYP) =  -1179.23045387     A.U. after   11 cycles
 SCF Done:  E(RB3LYP) =  -1179.23047130     A.U. after    9 cycles
 SCF Done:  E(RB3LYP) =  -1179.23048997     A.U. after   10 cycles
 SCF Done:  E(RB3LYP) =  -1179.23051513     A.U. after   11 cycles
 SCF Done:  E(RB3LYP) =  -1179.24938363     A.U. after    8 cycles
 SCF Done:  E(RB3LYP) =  -1179.24938507     A.U. after    8 cycles
 SCF Done:  E(RB3LYP) =  -1179.24938749     A.U. after    8 cycles
 SCF Done:  E(RB3LYP) =  -1179.24938902     A.U. after    8 cycles
 SCF Done:  E(RB3LYP) =  -1179.24938943     A.U. after    7 cycles
 SCF Done:  E(RB3LYP) =  -1179.24938949     A.U. after    7 cycles
 SCF Done:  E(RB3LYP) =  -1179.24938949     A.U. after    6 cycles
 SCF Done:  E(RB3LYP) =  -1179.24938949     A.U. after    6 cycles
 SCF Done:  E(RB3LYP) =  -1179.24938949     A.U. after    6 cycles
 Optimization completed.
    -- Stationary point found.
 Normal termination of Gaussian 16 at Mon Oct 14 13:43:16 2019.

 --------------------------------------------------------------------
 #P Geom=AllCheck Guess=TCheck SCRF=Check GenChk RB3LYP/6-31G(d) Freq
 --------------------------------------------------------------------

 Structure from the checkpoint file:  "03.chk"
 -----------
 albendazole
 -----------
 Charge =  0 Multiplicity = 1

                         Standard orientation:
 ---------------------------------------------------------------------
 Center     Atomic      Atomic             Coordinates (Angstroms)
 Number     Number       Type             X           Y           Z
 ---------------------------------------------------------------------
      1          6           0       -2.064412   -0.574685    0.608280
      2          6           0       -1.947763   -1.872908    0.062267
      3          6           0       -0.725477   -2.376434   -0.372364
      4          6           0        0.407628   -1.565620   -0.245778
      5          6           0        0.278317   -0.269700    0.314183
      6          6           0       -0.939787    0.247979    0.744486
      7          7           0        1.729913   -1.820896   -0.587821
      8          6           0        2.358865   -0.723147   -0.245276
      9          7           0        1.566382    0.250666    0.299435
     10          7           0        3.725495   -0.557048   -0.420734
     11          6           0        4.437856    0.566114   -0.081821
     12          8           0        5.738675    0.389672   -0.384823
     13          1           0        1.918937    1.147123    0.610609
     14          1           0        4.211129   -1.344088   -0.830729
     15          6           0        6.592378    1.504354   -0.073529
     16          8           0        3.964752    1.574276    0.418733
     17         16           0       -3.659876    0.018374    1.179992
     18          6           0       -4.409886    0.592956   -0.409777
     19          6           0       -5.819723    1.133707   -0.161403
     20          6           0       -6.484323    1.624339   -1.453260
     21          1           0       -4.436914   -0.250223   -1.108680
     22          1           0       -3.766965    1.369075   -0.839399
     23          1           0       -6.434489    0.348224    0.296477
     24          1           0       -5.771447    1.955114    0.565037
     25          1           0       -7.491785    2.006923   -1.254910
     26          1           0       -5.905667    2.432347   -1.916883
     27          1           0       -6.573305    0.814691   -2.187553
     28          1           0       -1.029747    1.241609    1.171505
     29          1           0       -2.839789   -2.487683   -0.008572
     30          1           0       -0.641925   -3.374482   -0.791248
     31          1           0        6.280018    2.392802   -0.627775
     32          1           0        6.566737    1.719265    0.997560
     33          1           0        7.591242    1.192950   -0.378776
 ---------------------------------------------------------------------

 SCF Done:  E(RB3LYP) =  -1179.24938949     A.U. after    1 cycles

 The electronic state is 1-A.
 Alpha  occ. eigenvalues --  -88.86038 -19.21484 -19.15316 -14.40324 -14.38808
 Alpha  occ. eigenvalues --  -14.31662 -10.36574 -10.30056 -10.25844 -10.22481
 Alpha  occ. eigenvalues --  -10.21044 -10.20889 -10.20451 -10.19413 -10.18563
 Alpha  occ. eigenvalues --  -10.18487 -10.18410 -10.17664  -7.92092  -5.88619
 Alpha  occ. eigenvalues --   -5.88256  -5.87545  -1.13339  -1.04548  -1.02784
 Alpha  occ. eigenvalues --   -0.95603  -0.88409  -0.84650  -0.79934  -0.76692
 Alpha  occ. eigenvalues --   -0.74900  -0.73826  -0.70524  -0.65880  -0.63097
 Alpha  occ. eigenvalues --   -0.62781  -0.62042  -0.58527  -0.57407  -0.56414
 Alpha  occ. eigenvalues --   -0.54675  -0.50976  -0.50906  -0.49028  -0.47440
 Alpha  occ. eigenvalues --   -0.46581  -0.46306  -0.45169  -0.44341  -0.43201
 Alpha  occ. eigenvalues --   -0.42772  -0.42487  -0.42034  -0.39343  -0.38995
 Alpha  occ. eigenvalues --   -0.38471  -0.36381  -0.35865  -0.34739  -0.33506
 Alpha  occ. eigenvalues --   -0.33430  -0.32372  -0.31934  -0.30925  -0.30800
 Alpha  occ. eigenvalues --   -0.28728  -0.28113  -0.22759  -0.21868  -0.20859
 Alpha virt. eigenvalues --   -0.02040   0.01393   0.02122   0.05740   0.07627
 Alpha virt. eigenvalues --    0.08148   0.08420   0.09821   0.10895   0.11609
 Alpha virt. eigenvalues --    0.11940   0.12963   0.13665   0.14191   0.14805

 Mulliken charges:
               1
     1  C   -0.117523
     2  C   -0.155907
     3  C   -0.182553
     4  C    0.245439
     5  C    0.368162
     6  C   -0.193251
     7  N   -0.578092
     8  C    0.747497
     9  N   -0.743803
    10  N   -0.729622
    11  C    0.820749
    12  O   -0.477280
    13  H    0.366049
    14  H    0.367396
    15  C   -0.216239
    16  O   -0.523274
    17  S    0.067073
    18  C   -0.391325
    19  C   -0.262747
    20  C   -0.444004
    21  H    0.167371
    22  H    0.165718
    23  H    0.152225
    24  H    0.151080
    25  H    0.148820
    26  H    0.145324
    27  H    0.145901
    28  H    0.147004
    29  H    0.139718
    30  H    0.139413
    31  H    0.177874
    32  H    0.178233
    33  H    0.174572
 Sum of Mulliken charges =  -0.00000

 Dipole moment (field-independent basis, Debye):
    X=              3.7726    Y=              1.8380    Z=             -1.5068  Tot=              4.4589
 Quadrupole moment (field-independent basis, Debye-Ang):
   XX=            -80.9474   YY=           -111.8795   ZZ=           -115.5537
   XY=              3.2747   XZ=              5.2162   YZ=              0.0975

  Exact polarizability: 289.573   6.064 151.194  -8.255  16.363 103.530
 Approx polarizability: 357.163  10.987 259.142 -21.977  43.680 164.311

                      1                      2                      3
                      A                      A                      A
 Frequencies --     12.6004                39.1118                49.5091
 Red. masses --      4.4308                 4.5423                 1.6005
 Frc consts  --      0.0004                 0.0041                 0.0023
 IR Inten    --      0.6755                 0.5300                 0.1006

                      4                      5                      6
                      A                      A                      A
 Frequencies --     50.2409                79.9844                87.1867
 Red. masses --      4.6551                 3.7015                 5.3535
 Frc consts  --      0.0069                 0.0140                 0.0240
 IR Inten    --      0.2337                 1.9945                 0.8899

                      7                      8                      9
                      A                      A                      A
 Frequencies --    111.0472               112.2540               122.6055
 Red. masses --      2.4831                 2.0415                 2.3183
 Frc consts  --      0.0180                 0.0152                 0.0205
 IR Inten    --      0.6711                 2.0076                 0.1081

                     10                     11                     12
                      A                      A                      A
 Frequencies --    166.3540               204.4870               210.8670
 Red. masses --      3.9231                 5.4884                 5.1122
 Frc consts  --      0.0640                 0.1352                 0.1339
 IR Inten    --      1.1717                 1.2944                 3.5578

                     13                     14                     15
                      A                      A                      A
 Frequencies --    227.4954               244.1180               279.1963
 Red. masses --      5.5834                 1.1110                 6.1176
 Frc consts  --      0.1703                 0.0390                 0.2810
 IR Inten    --      1.0480                 0.0583                 2.7133

                     16                     17                     18
                      A                      A                      A
 Frequencies --    290.9363               317.5357               343.7224
 Red. masses --      5.2391                 6.2423                 4.1422
 Frc consts  --      0.2613                 0.3708                 0.2883
 IR Inten    --     21.1744                 1.9205                 0.9439

                     19                     20                     21
                      A                      A                      A
 Frequencies --    376.4532               398.6423               438.1570
 Red. masses --      6.1129                 6.5312                 6.7735
 Frc consts  --      0.5104                 0.6115                 0.7662
 IR Inten    --     18.9354                 4.5354                 1.1458

                     22                     23                     24
                      A                      A                      A
 Frequencies --    447.1373               499.4157               568.3244
 Red. masses --      3.6386                 5.1727                 1.1150
 Frc consts  --      0.4286                 0.7601                 0.2122
 IR Inten    --      0.9380                10.2123               175.7992

                     25                     26                     27
                      A                      A                      A
 Frequencies --    580.0136               611.2164               628.5538
 Red. masses --      1.2957                 6.7412                 3.4746
 Frc consts  --      0.2568                 1.4838                 0.8088
 IR Inten    --     44.5267                 0.1401                 0.7088

                     28                     29                     30
                      A                      A                      A
 Frequencies --    710.4568               718.4880               734.5453
 Red. masses --      7.8073                 5.4123                 5.4844
 Frc consts  --      2.3218                 1.6462                 1.7435
 IR Inten    --      4.5634                 0.0578                 3.2909

                     31                     32                     33
                      A                      A                      A
 Frequencies --    746.2402               750.9418               758.4614
 Red. masses --      4.7460                 8.7710                 1.0831
 Frc consts  --      1.5572                 2.9141                 0.3671
 IR Inten    --      4.9043                17.6978                 3.8287

                     34                     35                     36
                      A                      A                      A
 Frequencies --    767.6056               771.6776               837.0100
 Red. masses --      4.4460                 6.2582                 1.5364
 Frc consts  --      1.5435                 2.1957                 0.6342
 IR Inten    --      2.5925                12.3114                28.5506

                     37                     38                     39
                      A                      A                      A
 Frequencies --    866.8573               877.1043               880.6419
 Red. masses --      4.5472                 1.3370                 1.2274
 Frc consts  --      2.0132                 0.6060                 0.5608
 IR Inten    --      1.3460                 7.6560                 1.9935

                     40                     41                     42
                      A                      A                      A
 Frequencies --    912.5169               933.9119               957.0170
 Red. masses --      1.9750                 4.9283                 1.2859
 Frc consts  --      0.9689                 2.5326                 0.6939
 IR Inten    --      2.0363                 0.5466                 0.0659

                     43                     44                     45
                      A                      A                      A
 Frequencies --    988.6267              1034.1758              1049.3389
 Red. masses --      6.3505                 7.5681                 2.7895
 Frc consts  --      3.6570                 4.7690                 1.8097
 IR Inten    --      4.5420                18.1939                 0.4135

                     46                     47                     48
                      A                      A                      A
 Frequencies --   1074.9087              1086.4696              1116.0907
 Red. masses --      1.1700                 2.1685                 3.1494
 Frc consts  --      0.7965                 1.5081                 2.3114
 IR Inten    --      0.8384                 0.2814                24.5279

                     49                     50                     51
                      A                      A                      A
 Frequencies --   1119.7353              1156.2054              1187.9500
 Red. masses --      1.9885                 1.4466                 1.2620
 Frc consts  --      1.4690                 1.1394                 1.0493
 IR Inten    --     22.7795                10.1378                 0.6174

                     52                     53                     54
                      A                      A                      A
 Frequencies --   1217.3014              1225.8572              1256.5261
 Red. masses --      1.8066                 1.5161                 1.4211
 Frc consts  --      1.5773                 1.3423                 1.3220
 IR Inten    --     19.1561                25.2047                 1.6318

                     55                     56                     57
                      A                      A                      A
 Frequencies --   1258.4257              1259.5611              1279.7485
 Red. masses --      2.1854                 2.5139                 1.2547
 Frc consts  --      2.0391                 2.3499                 1.2107
 IR Inten    --    143.1832               590.8092                26.0768

                     58                     59                     60
                      A                      A                      A
 Frequencies --   1307.9033              1321.4055              1336.5645
 Red. masses --      3.8006                 1.8956                 1.1022
 Frc consts  --      3.8304                 1.9501                 1.1600
 IR Inten    --    164.2083                10.4279                 0.3732

                     61                     62                     63
                      A                      A                      A
 Frequencies --   1365.8283              1393.3906              1439.6949
 Red. masses --      5.7459                 1.4446                 1.2349
 Frc consts  --      6.3154                 1.6525                 1.5080
 IR Inten    --      1.1810                 1.2186                 1.8731

                     64                     65                     66
                      A                      A                      A
 Frequencies --   1463.6979              1486.6977              1495.0508
 Red. masses --      2.3679                 2.4940                 2.9168
 Frc consts  --      2.9890                 3.2478                 3.8412
 IR Inten    --    193.4565                 3.2463               117.9901

                     67                     68                     69
                      A                      A                      A
 Frequencies --   1512.6176              1513.2407              1515.2335
 Red. masses --      2.1967                 1.0479                 1.0894
 Frc consts  --      2.9613                 1.4138                 1.4736
 IR Inten    --    142.5510                 6.7583                 6.6773

                     70                     71                     72
                      A                      A                      A
 Frequencies --   1523.8271              1526.6151              1529.1449
 Red. masses --      1.0573                 1.1209                 1.0406
 Frc consts  --      1.4466                 1.5391                 1.4336
 IR Inten    --      0.3725                 5.3143                 6.3865

                     73                     74                     75
                      A                      A                      A
 Frequencies --   1539.3071              1541.9809              1613.4023
 Red. masses --      1.0811                 2.8005                 6.2016
 Frc consts  --      1.5093                 3.9233                 9.5114
 IR Inten    --      2.5525                71.3451               281.0715

                     76                     77                     78
                      A                      A                      A
 Frequencies --   1628.4504              1690.0339              1804.9562
 Red. masses --      6.5109                 5.9057                 9.7839
 Frc consts  --     10.1728                 9.9383                18.7799
 IR Inten    --    370.6586               340.5283               219.7598

                     79                     80                     81
                      A                      A                      A
 Frequencies --   3043.9044              3044.8309              3059.2414
 Red. masses --      1.0427                 1.0522                 1.0564
 Frc consts  --      5.6922                 5.7472                 5.8253
 IR Inten    --     24.3897                15.4104                38.1249

                     82                     83                     84
                      A                      A                      A
 Frequencies --   3074.6692              3080.5156              3105.3262
 Red. masses --      1.1035                 1.0295                 1.1066
 Frc consts  --      6.1466                 5.7562                 6.2870
 IR Inten    --      2.3416                38.4130                 1.6487

                     85                     86                     87
                      A                      A                      A
 Frequencies --   3115.4333              3117.6137              3158.0736
 Red. masses --      1.1019                 1.1064                 1.1083
 Frc consts  --      6.3011                 6.3357                 6.5127
 IR Inten    --     42.5443                62.3908                18.4057

                     88                     89                     90
                      A                      A                      A
 Frequencies --   3189.3010              3202.1148              3213.7353
 Red. masses --      1.1073                 1.0877                 1.0918
 Frc consts  --      6.6357                 6.5708                 6.6439
 IR Inten    --     15.7073                 3.0730                 4.3690

                     91                     92                     93
                      A                      A                      A
 Frequencies --   3218.1441              3613.7547              3626.7281
 Red. masses --      1.0948                 1.0811                 1.0775
 Frc consts  --      6.6803                 8.3184                 8.3504
 IR Inten    --      9.9836               165.9650                83.1005

 - Thermochemistry -
 -------------------
 Temperature     0.001 Kelvin.  Pressure   1.00000 Atm.
 Atom     1 has atomic number  6 and mass  12.00000

 Molecular mass:   265.08850 amu.
 Principal axes and moments of inertia in atomic units:
                           1         2         3
     Eigenvalues --  1764.74702********************
           X            0.99995  -0.00347   0.00905
           Y            0.00358   0.99992  -0.01245
           Z           -0.00901   0.01248   0.99988
 This molecule is an asymmetric top.
 Rotational symmetry number  1.
 Warning -- assumption of classical behavior for rotation
           may cause significant error
 Rotational temperatures (Kelvin)      0.04908     0.00592     0.00557
 Rotational constants (GHZ):           1.02266     0.12336     0.11605
 Zero-point vibrational energy     696489.7 (Joules/Mol)
                                  166.46504 (Kcal/Mol)
 Vibrational temperatures:     18.13    56.27    71.23    72.29   115.08
          (Kelvin)            125.44   159.77   161.51   176.40   239.35
                              294.21   303.39   327.32   351.23   401.70
                              418.59   456.86   494.54   541.63   573.56
                              630.41   643.33   718.55   817.69   834.51
                              879.40   904.35  1022.19  1033.74  1056.85
                             1073.67  1080.44  1091.26  1104.41  1110.27
                             1204.27  1247.21  1261.96  1267.05  1312.91
                             1343.69  1376.93  1422.41  1487.95  1509.76
                             1546.55  1563.19  1605.81  1611.05  1663.52
                             1709.20  1751.43  1763.74  1807.86  1810.59
                             1812.23  1841.27  1881.78  1901.21  1923.02
                             1965.12  2004.78  2071.40  2105.93  2139.03
                             2151.04  2176.32  2177.22  2180.08  2192.45
                             2196.46  2200.10  2214.72  2218.57  2321.33
                             2342.98  2431.58  2596.93  4379.50  4380.83
                             4401.57  4423.76  4432.17  4467.87  4482.41
                             4485.55  4543.76  4588.69  4607.13  4623.85
                             4630.19  5199.39  5218.05

 Zero-point correction=                           0.265279 (Hartree/Particle)
 Thermal correction to Energy=                    0.265279
 Thermal correction to Enthalpy=                  0.265279
 Thermal correction to Gibbs Free Energy=         0.265279
 Sum of electronic and zero-point Energies=          -1178.984111
 Sum of electronic and thermal Energies=             -1178.984111
 Sum of electronic and thermal Enthalpies=           -1178.984111
 Sum of electronic and thermal Free Energies=        -1178.984111

                     E (Thermal)             CV                S
                      KCal/Mol        Cal/Mol-Kelvin    Cal/Mol-Kelvin
 Total                  166.465              5.962            -23.223
 Electronic               0.000              0.000              0.000
 Translational            0.000              2.981            -20.000
 Rotational               0.000              2.981             -3.224
 Vibrational            166.465              0.000              0.000

 Optimization completed.
    -- Stationary point found.
 Normal termination of Gaussian 16 at Mon Oct 14 13:44:47 2019.
