 Gaussian 16, Revision A.03,
 Gaussian 16:  ES64L-G16RevA.03 25-Dec-2016

 --------------------------------------------------------------
 #P opt freq b3lyp/6-31g(d) geom=connectivity temperature=0.001
 --------------------------------------------------------------

 ----------------
 albendazole plus
 ----------------
 Symbolic Z-matrix:
 Charge =  1 Multiplicity = 1

 SCF Done:  E(RB3LYP) =  -1179.58778174     A.U. after   15 cycles
 SCF Done:  E(RB3LYP) =  -1179.62082126     A.U. after   13 cycles
 SCF Done:  E(RB3LYP) =  -1179.62897232     A.U. after   13 cycles
 SCF Done:  E(RB3LYP) =  -1179.63096277     A.U. after   12 cycles
 SCF Done:  E(RB3LYP) =  -1179.63235090     A.U. after   12 cycles
 SCF Done:  E(RB3LYP) =  -1179.63280876     A.U. after   12 cycles
 SCF Done:  E(RB3LYP) =  -1179.63313872     A.U. after   12 cycles
 SCF Done:  E(RB3LYP) =  -1179.63360105     A.U. after   12 cycles
 SCF Done:  E(RB3LYP) =  -1179.63395318     A.U. after   15 cycles
 SCF Done:  E(RB3LYP) =  -1179.63486734     A.U. after   12 cycles
 SCF Done:  E(RB3LYP) =  -1179.63543459     A.U. after   11 cycles
 SCF Done:  E(RB3LYP) =  -1179.63544393     A.U. after   10 cycles
 SCF Done:  E(RB3LYP) =  -1179.63544717     A.U. after    8 cycles
 SCF Done:  E(RB3LYP) =  -1179.63544829     A.U. after    8 cycles
 SCF Done:  E(RB3LYP) =  -1179.63544876     A.U. after    7 cycles
 SCF Done:  E(RB3LYP) =  -1179.63544924     A.U. after    7 cycles
 SCF Done:  E(RB3LYP) =  -1179.63544938     A.U. after    7 cycles
 SCF Done:  E(RB3LYP) =  -1179.63544944     A.U. after    6 cycles
 SCF Done:  E(RB3LYP) =  -1179.63544947     A.U. after    6 cycles
 Optimization completed.
    -- Stationary point found.
 Normal termination of Gaussian 16 at Mon Oct 14 13:39:35 2019.

 --------------------------------------------------------------------
 #P Geom=AllCheck Guess=TCheck SCRF=Check GenChk RB3LYP/6-31G(d) Freq
 --------------------------------------------------------------------

 Structure from the checkpoint file:  "03_p.chk"
 ----------------
 albendazole plus
 ----------------
 Charge =  1 Multiplicity = 1

                         Standard orientation:
 ---------------------------------------------------------------------
 Center     Atomic      Atomic             Coordinates (Angstroms)
 Number     Number       Type             X           Y           Z
 ---------------------------------------------------------------------
      1          6           0       -2.124450   -0.374380   -0.000277
      2          6           0       -1.830710    1.011194   -0.000711
      3          6           0       -0.525209    1.494813   -0.000836
      4          6           0        0.499551    0.555156   -0.000564
      5          6           0        0.216548   -0.818766   -0.000191
      6          6           0       -1.076899   -1.313976    0.000005
      7          7           0        1.897193    0.675145   -0.000675
      8          6           0        2.444940   -0.545311   -0.000221
      9          7           0        1.463919   -1.471376    0.000015
     10          7           0        3.778705   -0.816340   -0.000070
     11          6           0        4.760923    0.195366    0.000299
     12          8           0        5.956884   -0.365499    0.000355
     13          1           0        1.605718   -2.472958    0.000590
     14          1           0        4.095811   -1.778731   -0.000398
     15          6           0        7.090776    0.548297    0.000606
     16          8           0        4.487313    1.378141    0.000448
     17         16           0       -3.763894   -1.043164   -0.000285
     18          6           0       -4.871457    0.425784    0.000084
     19          6           0       -6.328237   -0.054725    0.000712
     20          6           0       -7.306212    1.126041    0.000875
     21          1           0       -4.668446    1.028001   -0.891824
     22          1           0       -4.667682    1.028052    0.891778
     23          1           0       -6.505077   -0.684097   -0.879823
     24          1           0       -6.504365   -0.683852    0.881553
     25          1           0       -8.339921    0.766437    0.001609
     26          1           0       -7.172209    1.756732    0.887320
     27          1           0       -7.173222    1.756075   -0.886182
     28          1           0       -1.281848   -2.379851    0.000365
     29          1           0       -2.639683    1.730730   -0.000978
     30          1           0       -0.325636    2.561146   -0.001154
     31          1           0        7.059745    1.172009   -0.894046
     32          1           0        7.061172    1.169616    0.896981
     33          1           0        7.966355   -0.097507   -0.000923
     34          1           0        2.481915    1.508707   -0.000310
 ---------------------------------------------------------------------

 SCF Done:  E(RB3LYP) =  -1179.63544947     A.U. after    1 cycles

 The electronic state is 1-A.
 Alpha  occ. eigenvalues --  -88.98528 -19.34585 -19.29293 -14.56980 -14.56520
 Alpha  occ. eigenvalues --  -14.55957 -10.50749 -10.49968 -10.38447 -10.37762
 Alpha  occ. eigenvalues --  -10.36602 -10.35208 -10.33453 -10.33126 -10.32234
 Alpha  occ. eigenvalues --  -10.31268 -10.27525 -10.25367  -8.04641  -6.01164
 Alpha  occ. eigenvalues --   -6.00733  -6.00147  -1.27202  -1.22443  -1.17839
 Alpha  occ. eigenvalues --   -1.11707  -1.08732  -0.99694  -0.92730  -0.90038
 Alpha  occ. eigenvalues --   -0.88965  -0.87002  -0.83315  -0.82976  -0.79605
 Alpha  occ. eigenvalues --   -0.78287  -0.75230  -0.73549  -0.71870  -0.68703
 Alpha  occ. eigenvalues --   -0.68366  -0.67652  -0.67518  -0.65512  -0.63906
 Alpha  occ. eigenvalues --   -0.62282  -0.61432  -0.59300  -0.57897  -0.56857
 Alpha  occ. eigenvalues --   -0.56719  -0.56243  -0.55651  -0.51226  -0.51097
 Alpha  occ. eigenvalues --   -0.50434  -0.50327  -0.49671  -0.49515  -0.48701
 Alpha  occ. eigenvalues --   -0.46389  -0.45088  -0.44606  -0.44109  -0.42790
 Alpha  occ. eigenvalues --   -0.42111  -0.41565  -0.39784  -0.37743  -0.31791
 Alpha virt. eigenvalues --   -0.17526  -0.12558  -0.12080  -0.09130  -0.08749
 Alpha virt. eigenvalues --   -0.06633  -0.05809  -0.03924  -0.02574  -0.01840
 Alpha virt. eigenvalues --    0.00148   0.00623   0.01843   0.02245   0.02668

 Mulliken charges:
               1
     1  C   -0.071376
     2  C   -0.176744
     3  C   -0.144128
     4  C    0.333772
     5  C    0.359655
     6  C   -0.207207
     7  N   -0.728331
     8  C    0.920871
     9  N   -0.764560
    10  N   -0.746208
    11  C    0.850286
    12  O   -0.462410
    13  H    0.377655
    14  H    0.386940
    15  C   -0.238116
    16  O   -0.486744
    17  S    0.193377
    18  C   -0.433653
    19  C   -0.276022
    20  C   -0.450381
    21  H    0.187011
    22  H    0.187004
    23  H    0.168984
    24  H    0.168984
    25  H    0.172977
    26  H    0.155304
    27  H    0.155316
    28  H    0.180805
    29  H    0.174689
    30  H    0.182363
    31  H    0.204281
    32  H    0.204267
    33  H    0.209560
    34  H    0.411779
 Sum of Mulliken charges =   1.00000

 Dipole moment (field-independent basis, Debye):
    X=              8.4398    Y=             -1.7032    Z=              0.0005  Tot=              8.6099
 Quadrupole moment (field-independent basis, Debye-Ang):
   XX=             -9.8872   YY=            -92.5673   ZZ=           -112.7328
   XY=            -13.7484   XZ=             -0.0000   YZ=             -0.0047

  Exact polarizability: 324.362  -2.751 150.273   0.006  -0.010  82.367
 Approx polarizability: 391.870  -5.424 271.366   0.012  -0.026 127.159

                      1                      2                      3
                      A                      A                      A
 Frequencies --     16.0701                39.3049                58.0328
 Red. masses --      4.5348                 5.7188                 4.2524
 Frc consts  --      0.0007                 0.0052                 0.0084
 IR Inten    --      1.1257                 0.3470                 0.3646

                      4                      5                      6
                      A                      A                      A
 Frequencies --     72.4421                85.2875               100.0895
 Red. masses --      2.2747                 1.8431                 1.7541
 Frc consts  --      0.0070                 0.0079                 0.0104
 IR Inten    --      2.7315                 0.5011                 2.2387

                      7                      8                      9
                      A                      A                      A
 Frequencies --    107.1429               116.0451               121.2611
 Red. masses --      4.7229                 2.8376                 2.8896
 Frc consts  --      0.0319                 0.0225                 0.0250
 IR Inten    --      0.4500                 0.6992                 0.9187

                     10                     11                     12
                      A                      A                      A
 Frequencies --    167.8701               184.7485               211.8086
 Red. masses --      4.7004                 5.7317                 5.1402
 Frc consts  --      0.0780                 0.1153                 0.1359
 IR Inten    --      2.7186                 0.3556                 6.1925

                     13                     14                     15
                      A                      A                      A
 Frequencies --    222.5023               247.4111               268.2613
 Red. masses --      4.4435                 1.1242                 4.1840
 Frc consts  --      0.1296                 0.0405                 0.1774
 IR Inten    --      3.8101                 0.0007                13.3001

                     16                     17                     18
                      A                      A                      A
 Frequencies --    282.3548               330.1197               364.1950
 Red. masses --      5.2104                 5.3467                 5.3864
 Frc consts  --      0.2447                 0.3433                 0.4209
 IR Inten    --      0.0061                 5.8153                26.3315

                     19                     20                     21
                      A                      A                      A
 Frequencies --    366.1800               382.3865               422.3525
 Red. masses --      8.9393                 4.8433                 3.0772
 Frc consts  --      0.7062                 0.4172                 0.3234
 IR Inten    --      0.1908                 1.6918                 2.5750

                     22                     23                     24
                      A                      A                      A
 Frequencies --    437.1246               439.6947               509.3038
 Red. masses --      8.5964                 1.1107                 4.7364
 Frc consts  --      0.9678                 0.1265                 0.7238
 IR Inten    --      8.8985                 1.0011                 6.3671

                     25                     26                     27
                      A                      A                      A
 Frequencies --    527.0997               593.7905               602.0356
 Red. masses --      1.1972                 6.5228                 4.1611
 Frc consts  --      0.1960                 1.3550                 0.8886
 IR Inten    --    196.5528                 1.9819                 0.6281

                     28                     29                     30
                      A                      A                      A
 Frequencies --    688.9665               708.2330               711.2726
 Red. masses --      7.8593                 7.2667                 1.1925
 Frc consts  --      2.1980                 2.1475                 0.3555
 IR Inten    --      0.4706                 1.4170                98.8738

                     31                     32                     33
                      A                      A                      A
 Frequencies --    735.4712               735.7790               753.0853
 Red. masses --      5.6039                 4.4011                 5.7431
 Frc consts  --      1.7860                 1.4038                 1.9190
 IR Inten    --     10.5521                 0.2117                15.3929

                     34                     35                     36
                      A                      A                      A
 Frequencies --    753.7901               768.6115               769.9319
 Red. masses --      5.9975                 1.0848                 6.2671
 Frc consts  --      2.0078                 0.3776                 2.1889
 IR Inten    --     59.1097                 7.9203                19.1518

                     37                     38                     39
                      A                      A                      A
 Frequencies --    817.5325               861.1894               871.9600
 Red. masses --      1.4188                 1.3957                 3.8312
 Frc consts  --      0.5587                 0.6099                 1.7163
 IR Inten    --     35.6415                11.4552                 5.8187

                     40                     41                     42
                      A                      A                      A
 Frequencies --    890.4633               913.5437               930.9142
 Red. masses --      1.1827                 1.9871                 5.2191
 Frc consts  --      0.5525                 0.9771                 2.6648
 IR Inten    --      0.0329                 2.1997                62.3186

                     43                     44                     45
                      A                      A                      A
 Frequencies --    955.3305               966.3289              1036.1232
 Red. masses --      1.2989                 6.2837                 6.2228
 Frc consts  --      0.6984                 3.4571                 3.9360
 IR Inten    --      0.2419                39.9681                 1.6023

                     46                     47                     48
                      A                      A                      A
 Frequencies --   1047.0188              1085.8733              1086.6332
 Red. masses --      2.9390                 1.1822                 2.4595
 Frc consts  --      1.8983                 0.8213                 1.7110
 IR Inten    --      0.7035                 1.0720                72.9198

                     49                     50                     51
                      A                      A                      A
 Frequencies --   1109.8826              1118.6697              1170.7601
 Red. masses --      3.1656                 1.9946                 1.6766
 Frc consts  --      2.2975                 1.4706                 1.3540
 IR Inten    --     14.3547                13.5082                 6.0118

                     52                     53                     54
                      A                      A                      A
 Frequencies --   1183.3301              1220.0274              1221.4056
 Red. masses --      1.2555                 1.6256                 1.8354
 Frc consts  --      1.0358                 1.4256                 1.6132
 IR Inten    --      0.9994                52.1102                 1.9865

                     55                     56                     57
                      A                      A                      A
 Frequencies --   1237.4522              1262.0740              1273.8229
 Red. masses --      1.6334                 1.3796                 2.9063
 Frc consts  --      1.4737                 1.2947                 2.7785
 IR Inten    --     83.7393                 0.0043               700.9806

                     58                     59                     60
                      A                      A                      A
 Frequencies --   1280.9578              1289.4319              1325.3386
 Red. masses --      1.3150                 1.3719                 5.0354
 Frc consts  --      1.2712                 1.3439                 5.2112
 IR Inten    --      7.4463                17.3664               147.6513

                     61                     62                     63
                      A                      A                      A
 Frequencies --   1345.0823              1353.7950              1389.8084
 Red. masses --      1.0959                 2.1978                 1.8414
 Frc consts  --      1.1682                 2.3732                 2.0955
 IR Inten    --      0.8606               109.8578                16.3167

                     64                     65                     66
                      A                      A                      A
 Frequencies --   1399.1704              1444.2442              1445.2610
 Red. masses --      1.7478                 1.9895                 1.4180
 Frc consts  --      2.0159                 2.4449                 1.7451
 IR Inten    --     32.3640               193.4632                69.4554

                     67                     68                     69
                      A                      A                      A
 Frequencies --   1491.8843              1499.1522              1512.5417
 Red. masses --      2.0902                 1.5796                 1.0462
 Frc consts  --      2.7410                 2.0916                 1.4102
 IR Inten    --      6.4409                31.3030                12.5886

                     70                     71                     72
                      A                      A                      A
 Frequencies --   1513.0931              1516.0396              1522.7934
 Red. masses --      1.1122                 1.0606                 1.0505
 Frc consts  --      1.5003                 1.4363                 1.4352
 IR Inten    --     67.2804                13.5647                 1.6769

                     73                     74                     75
                      A                      A                      A
 Frequencies --   1529.7299              1530.8002              1538.0464
 Red. masses --      1.0397                 2.3666                 1.0880
 Frc consts  --      1.4334                 3.2675                 1.5164
 IR Inten    --      9.5431               206.1696                 1.7680

                     76                     77                     78
                      A                      A                      A
 Frequencies --   1607.1163              1642.8593              1681.6264
 Red. masses --      3.5064                 7.9812                 6.5041
 Frc consts  --      5.3359                12.6917                10.8366
 IR Inten    --    219.8577                12.4252                27.4706

                     79                     80                     81
                      A                      A                      A
 Frequencies --   1700.7836              1838.7310              3052.1868
 Red. masses --      5.0126                 9.3137                 1.0406
 Frc consts  --      8.5430                18.5528                 5.7114
 IR Inten    --    802.7659               246.8819                15.6317

                     82                     83                     84
                      A                      A                      A
 Frequencies --   3054.7623              3064.5097              3088.5543
 Red. masses --      1.0551                 1.0557                 1.1046
 Frc consts  --      5.8007                 5.8414                 6.2081
 IR Inten    --      3.3372                30.8182                 0.7650

                     85                     86                     87
                      A                      A                      A
 Frequencies --   3099.9304              3115.4825              3127.3624
 Red. masses --      1.0287                 1.1069                 1.1073
 Frc consts  --      5.8243                 6.3301                 6.3807
 IR Inten    --     15.1244                 3.4660                45.1050

                     88                     89                     90
                      A                      A                      A
 Frequencies --   3132.3097              3189.4750              3215.6939
 Red. masses --      1.1015                 1.1102                 1.0922
 Frc consts  --      6.3675                 6.6540                 6.6545
 IR Inten    --     22.8531                 5.9161                 0.0081

                     91                     92                     93
                      A                      A                      A
 Frequencies --   3220.8258              3224.7768              3249.0292
 Red. masses --      1.1091                 1.0914                 1.0918
 Frc consts  --      6.7786                 6.6868                 6.7907
 IR Inten    --      3.1192                 0.2350                 0.3791

                     94                     95                     96
                      A                      A                      A
 Frequencies --   3539.1057              3604.5692              3637.0550
 Red. masses --      1.0821                 1.0787                 1.0819
 Frc consts  --      7.9855                 8.2579                 8.4318
 IR Inten    --    276.1177               118.7193               128.0710

 - Thermochemistry -
 -------------------
 Temperature     0.001 Kelvin.  Pressure   1.00000 Atm.
 Atom     1 has atomic number  6 and mass  12.00000

 Molecular mass:   266.09632 amu.
 Principal axes and moments of inertia in atomic units:
                           1         2         3
     Eigenvalues --   918.91331********************
           X            0.99998  -0.00610  -0.00000
           Y            0.00610   0.99998  -0.00001
           Z            0.00000   0.00001   1.00000
 This molecule is an asymmetric top.
 Rotational symmetry number  1.
 Warning -- assumption of classical behavior for rotation
           may cause significant error
 Rotational temperatures (Kelvin)      0.09426     0.00527     0.00501
 Rotational constants (GHZ):           1.96400     0.10991     0.10436
 Zero-point vibrational energy     730764.6 (Joules/Mol)
                                  174.65694 (Kcal/Mol)
 Vibrational temperatures:     23.12    56.55    83.50   104.23   122.71
          (Kelvin)            144.01   154.15   166.96   174.47   241.53
                              265.81   304.75   320.13   355.97   385.97
                              406.25   474.97   524.00   526.85   550.17
                              607.67   628.92   632.62   732.77   758.38
                              854.33   866.19   991.27  1018.99  1023.36
                             1058.18  1058.62  1083.52  1084.54  1105.86
                             1107.76  1176.25  1239.06  1254.56  1281.18
                             1314.39  1339.38  1374.51  1390.33  1490.75
                             1506.43  1562.33  1563.42  1596.87  1609.52
                             1684.46  1702.55  1755.35  1757.33  1780.42
                             1815.84  1832.75  1843.01  1855.20  1906.87
                             1935.27  1947.81  1999.62  2013.09  2077.95
                             2079.41  2146.49  2156.95  2176.21  2177.00
                             2181.24  2190.96  2200.94  2202.48  2212.91
                             2312.28  2363.71  2419.49  2447.05  2645.52
                             4391.42  4395.12  4409.15  4443.74  4460.11
                             4482.48  4499.58  4506.69  4588.94  4626.67
                             4634.05  4639.73  4674.63  5091.98  5186.17
                             5232.91

 Zero-point correction=                           0.278334 (Hartree/Particle)
 Thermal correction to Energy=                    0.278334
 Thermal correction to Enthalpy=                  0.278334
 Thermal correction to Gibbs Free Energy=         0.278334
 Sum of electronic and zero-point Energies=          -1179.357116
 Sum of electronic and thermal Energies=             -1179.357116
 Sum of electronic and thermal Enthalpies=           -1179.357116
 Sum of electronic and thermal Free Energies=        -1179.357116

                     E (Thermal)             CV                S
                      KCal/Mol        Cal/Mol-Kelvin    Cal/Mol-Kelvin
 Total                  174.657              5.962            -23.640
 Electronic               0.000              0.000              0.000
 Translational            0.000              2.981            -19.988
 Rotational               0.000              2.981             -3.652
 Vibrational            174.657              0.000              0.000

                           ! Non-Optimized Parameters !
 Normal termination of Gaussian 16 at Mon Oct 14 13:41:11 2019.
