 Gaussian 16, Revision A.03,
 Gaussian 16:  ES64L-G16RevA.03 25-Dec-2016

 --------------------------------------------------------------
 #p opt freq b3lyp/6-31g(d) geom=connectivity temperature=0.001
 --------------------------------------------------------------

 --------------------
 methionine_sulfoxide
 --------------------
 Symbolic Z-matrix:
 Charge =  0 Multiplicity = 1

 SCF Done:  E(RB3LYP) =  -875.685446260     A.U. after   15 cycles
 SCF Done:  E(RB3LYP) =  -875.710072960     A.U. after   13 cycles
 SCF Done:  E(RB3LYP) =  -875.718398616     A.U. after   13 cycles
 SCF Done:  E(RB3LYP) =  -875.719680365     A.U. after   12 cycles
 SCF Done:  E(RB3LYP) =  -875.720211661     A.U. after   12 cycles
 SCF Done:  E(RB3LYP) =  -875.720609446     A.U. after   11 cycles
 SCF Done:  E(RB3LYP) =  -875.720704463     A.U. after   12 cycles
 SCF Done:  E(RB3LYP) =  -875.720731599     A.U. after   10 cycles
 SCF Done:  E(RB3LYP) =  -875.720750886     A.U. after   10 cycles
 SCF Done:  E(RB3LYP) =  -875.720794773     A.U. after   11 cycles
 SCF Done:  E(RB3LYP) =  -875.721416311     A.U. after   13 cycles
 SCF Done:  E(RB3LYP) =  -875.721358666     A.U. after   13 cycles
 SCF Done:  E(RB3LYP) =  -875.721447429     A.U. after   13 cycles
 SCF Done:  E(RB3LYP) =  -875.721387131     A.U. after   13 cycles
 SCF Done:  E(RB3LYP) =  -875.721459180     A.U. after   13 cycles
 SCF Done:  E(RB3LYP) =  -875.721460758     A.U. after   10 cycles
 SCF Done:  E(RB3LYP) =  -875.721460796     A.U. after   10 cycles
 SCF Done:  E(RB3LYP) =  -875.721460854     A.U. after   10 cycles
 SCF Done:  E(RB3LYP) =  -875.721460905     A.U. after    8 cycles
 Optimization completed.
    -- Stationary point found.
 Normal termination of Gaussian 16 at Mon Oct 14 13:38:35 2019.

 --------------------------------------------------------------------
 #P Geom=AllCheck Guess=TCheck SCRF=Check GenChk RB3LYP/6-31G(d) Freq
 --------------------------------------------------------------------

 Structure from the checkpoint file:  "04.chk"
 --------------------
 methionine_sulfoxide
 --------------------
 Charge =  0 Multiplicity = 1

                         Standard orientation:
 ---------------------------------------------------------------------
 Center     Atomic      Atomic             Coordinates (Angstroms)
 Number     Number       Type             X           Y           Z
 ---------------------------------------------------------------------
      1          6           0        2.678428   -1.636893   -0.079964
      2         16           0        2.545514    0.114431    0.458545
      3          6           0        0.983389    0.519013   -0.441966
      4          8           0        3.657182    0.873524   -0.232605
      5          6           0       -0.251398   -0.176900    0.127345
      6          6           0       -1.559379    0.431811   -0.424417
      7          6           0       -2.730994   -0.495757   -0.062346
      8          8           0       -3.802127    0.177869    0.425424
      9          8           0       -2.728022   -1.698685   -0.204946
     10          7           0       -1.686905    1.830221   -0.035630
     11          1           0        3.621192   -2.017311    0.320665
     12          1           0        1.845838   -2.225324    0.316157
     13          1           0        2.703263   -1.679469   -1.173123
     14          1           0        1.147065    0.289130   -1.501647
     15          1           0        0.889718    1.604150   -0.340567
     16          1           0       -0.260548   -0.085203    1.223577
     17          1           0       -0.253082   -1.245411   -0.104312
     18          1           0       -1.505717    0.398852   -1.522112
     19          1           0       -4.485196   -0.497232    0.601729
     20          1           0       -2.496152    2.249138   -0.488592
     21          1           0       -1.862809    1.896942    0.966027
 ---------------------------------------------------------------------

 SCF Done:  E(RB3LYP) =  -875.721460905     A.U. after    1 cycles

 The electronic state is 1-A.
 Alpha  occ. eigenvalues --  -88.97757 -19.21584 -19.15429 -19.09366 -14.33517
 Alpha  occ. eigenvalues --  -10.33296 -10.24985 -10.21124 -10.21014 -10.20879
 Alpha  occ. eigenvalues --   -8.02479  -5.98873  -5.98798  -5.98216  -1.12195
 Alpha  occ. eigenvalues --   -1.03048  -0.99030  -0.91171  -0.80709  -0.75819
 Alpha  occ. eigenvalues --   -0.71659  -0.66007  -0.60701  -0.59056  -0.52234
 Alpha  occ. eigenvalues --   -0.51596  -0.49661  -0.47402  -0.45975  -0.45541
 Alpha  occ. eigenvalues --   -0.44251  -0.42920  -0.41767  -0.40599  -0.39786
 Alpha  occ. eigenvalues --   -0.38236  -0.36677  -0.36095  -0.34357  -0.33263
 Alpha  occ. eigenvalues --   -0.31098  -0.25430  -0.25021  -0.21618
 Alpha virt. eigenvalues --   -0.00874   0.04173   0.05088   0.05546   0.07943
 Alpha virt. eigenvalues --    0.08959   0.10320   0.10623   0.13201   0.13506
 Alpha virt. eigenvalues --    0.13835   0.15663   0.16862   0.18039   0.20084

 Mulliken charges:
               1
     1  C   -0.633819
     2  S    0.752569
     3  C   -0.467530
     4  O   -0.633573
     5  C   -0.288513
     6  C   -0.072536
     7  C    0.566870
     8  O   -0.570597
     9  O   -0.459659
    10  N   -0.697832
    11  H    0.197533
    12  H    0.178012
    13  H    0.191841
    14  H    0.176846
    15  H    0.216022
    16  H    0.150786
    17  H    0.179960
    18  H    0.178726
    19  H    0.413456
    20  H    0.314940
    21  H    0.306497
 Sum of Mulliken charges =  -0.00000

 Dipole moment (field-independent basis, Debye):
    X=             -4.9899    Y=             -1.2940    Z=              0.7790  Tot=              5.2134
 Quadrupole moment (field-independent basis, Debye-Ang):
   XX=            -72.6547   YY=            -71.2311   ZZ=            -63.8645
   XY=            -13.8206   XZ=             -0.3555   YZ=             -0.2334

  Exact polarizability: 107.871  -1.949  86.306  -1.823   0.631  64.410
 Approx polarizability: 137.245   3.680 137.816  -4.285   1.342 100.262

                      1                      2                      3
                      A                      A                      A
 Frequencies --     21.4082                36.2071                58.7248
 Red. masses --      7.8086                 4.3058                 3.9314
 Frc consts  --      0.0021                 0.0033                 0.0080
 IR Inten    --      2.1104                 3.4038                 1.7126

                      4                      5                      6
                      A                      A                      A
 Frequencies --     92.2313               129.4861               199.2612
 Red. masses --      4.5030                 2.2216                 2.0118
 Frc consts  --      0.0226                 0.0219                 0.0471
 IR Inten    --      2.2094                 1.2702                 0.7272

                      7                      8                      9
                      A                      A                      A
 Frequencies --    211.6248               217.6460               260.0580
 Red. masses --      2.1006                 3.3083                 1.1120
 Frc consts  --      0.0554                 0.0923                 0.0443
 IR Inten    --      1.7474                 2.5208                49.9642

                     10                     11                     12
                      A                      A                      A
 Frequencies --    298.4689               311.4545               341.3100
 Red. masses --      4.2523                 3.5926                 3.0366
 Frc consts  --      0.2232                 0.2053                 0.2084
 IR Inten    --      8.5551                 6.4070                 3.9192

                     13                     14                     15
                      A                      A                      A
 Frequencies --    398.7044               403.9800               516.8775
 Red. masses --      3.8468                 2.7998                 5.0888
 Frc consts  --      0.3603                 0.2692                 0.8010
 IR Inten    --     11.2220                 2.1237                 9.3790

                     16                     17                     18
                      A                      A                      A
 Frequencies --    576.2925               643.1028               662.8167
 Red. masses --      3.1568                 3.7824                 1.6027
 Frc consts  --      0.6177                 0.9217                 0.4148
 IR Inten    --     44.6162                17.2767                76.7542

                     19                     20                     21
                      A                      A                      A
 Frequencies --    725.4852               751.2620               776.0669
 Red. masses --      3.7622                 2.8169                 1.3246
 Frc consts  --      1.1667                 0.9367                 0.4700
 IR Inten    --     64.9403                26.0886                 2.1460

                     22                     23                     24
                      A                      A                      A
 Frequencies --    851.8962               916.8136               952.7728
 Red. masses --      2.5224                 1.5474                 2.0329
 Frc consts  --      1.0785                 0.7663                 1.0873
 IR Inten    --     89.0572                 0.4149               114.5481

                     25                     26                     27
                      A                      A                      A
 Frequencies --    957.7724               968.8968              1027.1079
 Red. masses --      1.4799                 1.9096                 1.5793
 Frc consts  --      0.7999                 1.0562                 0.9816
 IR Inten    --     21.0738                 3.6725                 5.2715

                     28                     29                     30
                      A                      A                      A
 Frequencies --   1062.7186              1085.0310              1125.0435
 Red. masses --      2.6941                 7.6589                 1.1873
 Frc consts  --      1.7927                 5.3125                 0.8854
 IR Inten    --      3.4904               127.8079                16.7547

                     31                     32                     33
                      A                      A                      A
 Frequencies --   1161.1797              1195.5506              1250.2524
 Red. masses --      2.2517                 2.4951                 1.2710
 Frc consts  --      1.7888                 2.1012                 1.1705
 IR Inten    --    124.6847               158.2260                 7.8878

                     34                     35                     36
                      A                      A                      A
 Frequencies --   1264.5464              1315.5441              1345.3133
 Red. masses --      1.4497                 1.3262                 1.2540
 Frc consts  --      1.3659                 1.3523                 1.3371
 IR Inten    --      9.0405                 4.6905                 6.7335

                     37                     38                     39
                      A                      A                      A
 Frequencies --   1360.6934              1374.7977              1394.4653
 Red. masses --      1.2207                 2.0153                 1.4601
 Frc consts  --      1.3316                 2.2442                 1.6728
 IR Inten    --     10.4518                35.3410                 0.4157

                     40                     41                     42
                      A                      A                      A
 Frequencies --   1414.3048              1478.2129              1493.2067
 Red. masses --      1.3133                 1.0517                 1.0642
 Frc consts  --      1.5477                 1.3540                 1.3981
 IR Inten    --      7.6016                 8.4347                 3.4035

                     43                     44                     45
                      A                      A                      A
 Frequencies --   1507.5134              1523.1278              1706.2550
 Red. masses --      1.0772                 1.0895                 1.0916
 Frc consts  --      1.4423                 1.4892                 1.8724
 IR Inten    --     10.3038                 4.8832                32.9154

                     46                     47                     48
                      A                      A                      A
 Frequencies --   1836.1556              3027.5718              3042.8595
 Red. masses --     10.2077                 1.0732                 1.0795
 Frc consts  --     20.2767                 5.7961                 5.8892
 IR Inten    --    212.7022                 4.0310                19.9040

                     49                     50                     51
                      A                      A                      A
 Frequencies --   3062.5704              3068.0771              3120.0468
 Red. masses --      1.0301                 1.0620                 1.0940
 Frc consts  --      5.6926                 5.8897                 6.2745
 IR Inten    --      5.0615                14.0434                 6.5307

                     52                     53                     54
                      A                      A                      A
 Frequencies --   3141.1765              3160.4802              3168.1247
 Red. masses --      1.1016                 1.1067                 1.1051
 Frc consts  --      6.4039                 6.5130                 6.5349
 IR Inten    --      6.0968                 6.4642                 5.3958

                     55                     56                     57
                      A                      A                      A
 Frequencies --   3480.0694              3564.5577              3677.7020
 Red. masses --      1.0509                 1.0915                 1.0640
 Frc consts  --      7.4985                 8.1712                 8.4790
 IR Inten    --      0.6125                 1.4023                53.6603

 - Thermochemistry -
 -------------------
 Temperature     0.001 Kelvin.  Pressure   1.00000 Atm.
 Atom     1 has atomic number  6 and mass  12.00000

 Molecular mass:   165.04597 amu.
 Principal axes and moments of inertia in atomic units:
                           1         2         3
     Eigenvalues --   704.555323973.853074497.43410
           X            0.99972  -0.02312  -0.00434
           Y            0.02311   0.99973  -0.00269
           Z            0.00440   0.00259   0.99999
 This molecule is an asymmetric top.
 Rotational symmetry number  1.
 Warning -- assumption of classical behavior for rotation
           may cause significant error
 Rotational temperatures (Kelvin)      0.12293     0.02180     0.01926
 Rotational constants (GHZ):           2.56153     0.45415     0.40128
 Zero-point vibrational energy     446894.2 (Joules/Mol)
                                  106.81028 (Kcal/Mol)
 Vibrational temperatures:     30.80    52.09    84.49   132.70   186.30
          (Kelvin)            286.69   304.48   313.14   374.17   429.43
                              448.11   491.07   573.65   581.24   743.67
                              829.16   925.28   953.65  1043.81  1080.90
                             1116.59  1225.69  1319.09  1370.83  1378.02
                             1394.03  1477.78  1529.02  1561.12  1618.69
                             1670.68  1720.13  1798.83  1819.40  1892.77
                             1935.61  1957.73  1978.03  2006.32  2034.87
                             2126.82  2148.39  2168.98  2191.44  2454.92
                             2641.82  4356.00  4378.00  4406.36  4414.28
                             4489.05  4519.45  4547.23  4558.22  5007.04
                             5128.60  5291.39

 Zero-point correction=                           0.170213 (Hartree/Particle)
 Thermal correction to Energy=                    0.170213
 Thermal correction to Enthalpy=                  0.170213
 Thermal correction to Gibbs Free Energy=         0.170213
 Sum of electronic and zero-point Energies=           -875.551248
 Sum of electronic and thermal Energies=              -875.551248
 Sum of electronic and thermal Enthalpies=            -875.551248
 Sum of electronic and thermal Free Energies=         -875.551248

                     E (Thermal)             CV                S
                      KCal/Mol        Cal/Mol-Kelvin    Cal/Mol-Kelvin
 Total                  106.810              5.962            -28.076
 Electronic               0.000              0.000              0.000
 Translational            0.000              2.981            -21.412
 Rotational               0.000              2.981             -6.664
 Vibrational            106.810              0.000              0.000

 Optimization completed.
    -- Stationary point found.
 Normal termination of Gaussian 16 at Mon Oct 14 13:39:03 2019.
