 Gaussian 16, Revision A.03,
 Gaussian 16:  ES64L-G16RevA.03 25-Dec-2016

 --------------------------------------------------------------
 #p opt freq b3lyp/6-31g(d) geom=connectivity temperature=0.001
 --------------------------------------------------------------

 --------------------
 methionine_sulfoxide
 --------------------
 Symbolic Z-matrix:
 Charge =  1 Multiplicity = 1

 SCF Done:  E(RB3LYP) =  -876.023423428     A.U. after   17 cycles
 SCF Done:  E(RB3LYP) =  -876.054067101     A.U. after   14 cycles
 SCF Done:  E(RB3LYP) =  -876.066421496     A.U. after   14 cycles
 SCF Done:  E(RB3LYP) =  -876.068241388     A.U. after   14 cycles
 SCF Done:  E(RB3LYP) =  -876.069668912     A.U. after   13 cycles
 SCF Done:  E(RB3LYP) =  -876.070908948     A.U. after   14 cycles
 SCF Done:  E(RB3LYP) =  -876.071887906     A.U. after   12 cycles
 SCF Done:  E(RB3LYP) =  -876.072406797     A.U. after   15 cycles
 SCF Done:  E(RB3LYP) =  -876.072521619     A.U. after   12 cycles
 SCF Done:  E(RB3LYP) =  -876.072631001     A.U. after   12 cycles
 SCF Done:  E(RB3LYP) =  -876.073011225     A.U. after   13 cycles
 SCF Done:  E(RB3LYP) =  -876.073099652     A.U. after   12 cycles
 SCF Done:  E(RB3LYP) =  -876.073104803     A.U. after   10 cycles
 SCF Done:  E(RB3LYP) =  -876.073108518     A.U. after   11 cycles
 SCF Done:  E(RB3LYP) =  -876.073110802     A.U. after   12 cycles
 SCF Done:  E(RB3LYP) =  -876.073115498     A.U. after   11 cycles
 SCF Done:  E(RB3LYP) =  -876.073115687     A.U. after    9 cycles
 SCF Done:  E(RB3LYP) =  -876.073115856     A.U. after    9 cycles
 SCF Done:  E(RB3LYP) =  -876.073115896     A.U. after    7 cycles
 Optimization completed.
    -- Stationary point found.
 Normal termination of Gaussian 16 at Mon Oct 14 13:38:05 2019.

 --------------------------------------------------------------------
 #P Geom=AllCheck Guess=TCheck SCRF=Check GenChk RB3LYP/6-31G(d) Freq
 --------------------------------------------------------------------

 Structure from the checkpoint file:  "04_p.chk"
 --------------------
 methionine_sulfoxide
 --------------------
 Charge =  1 Multiplicity = 1

                         Standard orientation:
 ---------------------------------------------------------------------
 Center     Atomic      Atomic             Coordinates (Angstroms)
 Number     Number       Type             X           Y           Z
 ---------------------------------------------------------------------
      1          6           0        2.880447   -1.533587   -0.449811
      2         16           0        2.591532    0.012247    0.494224
      3          6           0        0.996981    0.509774   -0.376998
      4          8           0        3.609234    1.023974    0.047568
      5          6           0       -0.238686   -0.197685    0.178613
      6          6           0       -1.557891    0.259400   -0.457383
      7          6           0       -2.755996   -0.577228    0.012703
      8          8           0       -3.822618    0.207421    0.281715
      9          8           0       -2.714799   -1.772041    0.095385
     10          7           0       -1.821166    1.739102   -0.173588
     11          1           0        3.808018   -1.964077   -0.064594
     12          1           0        2.060587   -2.241001   -0.288909
     13          1           0        3.003464   -1.296285   -1.510412
     14          1           0        1.128657    0.353484   -1.453547
     15          1           0        0.995525    1.590247   -0.185014
     16          1           0       -0.298211   -0.078958    1.269500
     17          1           0       -0.191108   -1.275680   -0.006072
     18          1           0       -1.505550    0.183214   -1.549223
     19          1           0       -4.575090   -0.359778    0.548393
     20          1           0       -2.737143    2.025926   -0.541840
     21          1           0       -1.839428    1.924155    0.837638
     22          1           0       -1.089732    2.330216   -0.588480
 ---------------------------------------------------------------------

 SCF Done:  E(RB3LYP) =  -876.073115896     A.U. after    1 cycles

 The electronic state is 1-A.
 Alpha  occ. eigenvalues --  -89.10628 -19.38690 -19.32461 -19.21983 -14.67063
 Alpha  occ. eigenvalues --  -10.51221 -10.46398 -10.38322 -10.36284 -10.32215
 Alpha  occ. eigenvalues --   -8.15310  -6.11717  -6.11625  -6.11034  -1.29356
 Alpha  occ. eigenvalues --   -1.21319  -1.20521  -1.11977  -0.99601  -0.92527
 Alpha  occ. eigenvalues --   -0.87361  -0.82542  -0.81067  -0.78443  -0.77338
 Alpha  occ. eigenvalues --   -0.72755  -0.71822  -0.66979  -0.65856  -0.63317
 Alpha  occ. eigenvalues --   -0.61786  -0.59373  -0.58929  -0.56672  -0.55932
 Alpha  occ. eigenvalues --   -0.54858  -0.53638  -0.51394  -0.50438  -0.50274
 Alpha  occ. eigenvalues --   -0.47088  -0.46125  -0.37916  -0.34111
 Alpha virt. eigenvalues --   -0.18473  -0.16032  -0.11067  -0.10268  -0.09425
 Alpha virt. eigenvalues --   -0.08334  -0.07662  -0.07062  -0.05206  -0.04972
 Alpha virt. eigenvalues --   -0.03291  -0.00705   0.00311   0.02127   0.03138

 Mulliken charges:
               1
     1  C   -0.648851
     2  S    0.797647
     3  C   -0.510323
     4  O   -0.590236
     5  C   -0.304720
     6  C   -0.136180
     7  C    0.636325
     8  O   -0.593253
     9  O   -0.383940
    10  N   -0.728748
    11  H    0.234036
    12  H    0.182931
    13  H    0.213526
    14  H    0.205539
    15  H    0.174003
    16  H    0.191915
    17  H    0.235979
    18  H    0.255059
    19  H    0.463163
    20  H    0.441892
    21  H    0.430978
    22  H    0.433259
 Sum of Mulliken charges =   1.00000

 Dipole moment (field-independent basis, Debye):
    X=            -10.2627    Y=              4.0710    Z=             -1.0829  Tot=             11.0937
 Quadrupole moment (field-independent basis, Debye-Ang):
   XX=            -43.5818   YY=            -53.1999   ZZ=            -60.1993
   XY=            -23.6364   XZ=             -1.6382   YZ=             -0.8428

  Exact polarizability: 110.434  -2.296  86.628  -0.905   0.859  62.186
 Approx polarizability: 141.738   3.633 141.953   0.161   1.009  95.397

                      1                      2                      3
                      A                      A                      A
 Frequencies --     29.6017                34.3117                51.5303
 Red. masses --      5.2231                 5.2987                 3.5227
 Frc consts  --      0.0027                 0.0037                 0.0055
 IR Inten    --     12.1623                 8.5284                 6.1084

                      4                      5                      6
                      A                      A                      A
 Frequencies --     88.1115               110.1523               172.7189
 Red. masses --      4.8895                 2.1638                 1.0866
 Frc consts  --      0.0224                 0.0155                 0.0191
 IR Inten    --      7.8413                 1.3844                 1.1098

                      7                      8                      9
                      A                      A                      A
 Frequencies --    188.7253               199.7707               217.6919
 Red. masses --      1.3897                 5.7929                 2.2980
 Frc consts  --      0.0292                 0.1362                 0.0642
 IR Inten    --      0.5258                 2.2929                 1.1318

                     10                     11                     12
                      A                      A                      A
 Frequencies --    302.4393               303.3634               331.3274
 Red. masses --      3.6337                 3.4067                 3.4012
 Frc consts  --      0.1958                 0.1847                 0.2200
 IR Inten    --      2.6613                 5.4703                12.0117

                     13                     14                     15
                      A                      A                      A
 Frequencies --    388.3415               399.4506               497.1796
 Red. masses --      2.6225                 3.7683                 5.3661
 Frc consts  --      0.2330                 0.3543                 0.7815
 IR Inten    --     26.6760                 2.3547                14.5424

                     16                     17                     18
                      A                      A                      A
 Frequencies --    554.1161               640.3609               648.9772
 Red. masses --      3.3720                 2.0346                 2.2190
 Frc consts  --      0.6100                 0.4916                 0.5506
 IR Inten    --      9.2685                70.1466                37.8673

                     19                     20                     21
                      A                      A                      A
 Frequencies --    695.2376               724.3866               753.7239
 Red. masses --      4.3600                 2.7185                 1.3982
 Frc consts  --      1.2417                 0.8405                 0.4680
 IR Inten    --    100.2401                44.1720                 3.4272

                     22                     23                     24
                      A                      A                      A
 Frequencies --    826.0603               885.8035               930.4201
 Red. masses --      2.6120                 2.5392                 1.3064
 Frc consts  --      1.0501                 1.1739                 0.6663
 IR Inten    --     15.3071                19.5903                 1.4494

                     25                     26                     27
                      A                      A                      A
 Frequencies --    959.4914               989.7617              1033.7853
 Red. masses --      1.4249                 1.4038                 2.4954
 Frc consts  --      0.7729                 0.8102                 1.5713
 IR Inten    --      3.2614                39.5323                19.2551

                     28                     29                     30
                      A                      A                      A
 Frequencies --   1050.8809              1079.4655              1109.8098
 Red. masses --      3.3697                 1.6176                 4.1035
 Frc consts  --      2.1925                 1.1106                 2.9778
 IR Inten    --     37.8188                60.9764                53.5556

                     31                     32                     33
                      A                      A                      A
 Frequencies --   1114.6005              1184.9770              1229.9401
 Red. masses --      1.7869                 1.9626                 1.5516
 Frc consts  --      1.3080                 1.6237                 1.3829
 IR Inten    --    140.5358               153.9858                12.4674

                     34                     35                     36
                      A                      A                      A
 Frequencies --   1252.8564              1308.7159              1334.5573
 Red. masses --      1.2306                 1.3594                 1.1297
 Frc consts  --      1.1381                 1.3718                 1.1854
 IR Inten    --     20.8068                 3.1062                 4.3217

                     37                     38                     39
                      A                      A                      A
 Frequencies --   1360.9338              1368.1758              1398.6506
 Red. masses --      1.9243                 1.1962                 1.3071
 Frc consts  --      2.0999                 1.3193                 1.5066
 IR Inten    --     46.1173                 6.8174                 6.5574

                     40                     41                     42
                      A                      A                      A
 Frequencies --   1409.1196              1467.9045              1492.2175
 Red. masses --      1.6212                 1.0505                 1.0757
 Frc consts  --      1.8967                 1.3337                 1.4112
 IR Inten    --     22.4139                11.0942                 8.1758

                     43                     44                     45
                      A                      A                      A
 Frequencies --   1499.6434              1512.6021              1540.5569
 Red. masses --      1.0802                 1.0894                 1.1701
 Frc consts  --      1.4312                 1.4685                 1.6361
 IR Inten    --      7.2154                25.8814               187.2977

                     46                     47                     48
                      A                      A                      A
 Frequencies --   1672.7876              1694.0849              1894.9997
 Red. masses --      1.0452                 1.0479                11.3846
 Frc consts  --      1.7232                 1.7718                24.0872
 IR Inten    --     68.0985                57.3616               214.2066

                     49                     50                     51
                      A                      A                      A
 Frequencies --   3048.4710              3052.5439              3063.6627
 Red. masses --      1.0621                 1.0675                 1.0305
 Frc consts  --      5.8156                 5.8604                 5.6990
 IR Inten    --      9.3505                 8.1970                 3.6856

                     52                     53                     54
                      A                      A                      A
 Frequencies --   3100.4560              3110.4849              3126.9900
 Red. masses --      1.0850                 1.1015                 1.0994
 Frc consts  --      6.1450                 6.2793                 6.3337
 IR Inten    --      0.4027                 4.4716                 2.6856

                     55                     56                     57
                      A                      A                      A
 Frequencies --   3162.0187              3174.1874              3387.6127
 Red. masses --      1.1067                 1.1056                 1.0304
 Frc consts  --      6.5193                 6.5633                 6.9669
 IR Inten    --      3.7011                 0.3928                42.7887

                     58                     59                     60
                      A                      A                      A
 Frequencies --   3475.9759              3479.9874              3655.9135
 Red. masses --      1.0937                 1.0946                 1.0649
 Frc consts  --      7.7858                 7.8105                 8.3859
 IR Inten    --     91.0352               131.0857               167.5850

 - Thermochemistry -
 -------------------
 Temperature     0.001 Kelvin.  Pressure   1.00000 Atm.
 Atom     1 has atomic number  6 and mass  12.00000

 Molecular mass:   166.05379 amu.
 Principal axes and moments of inertia in atomic units:
                           1         2         3
     Eigenvalues --   719.077004095.966434623.35411
           X            0.99966  -0.02511  -0.00656
           Y            0.02514   0.99968   0.00419
           Z            0.00645  -0.00435   0.99997
 This molecule is an asymmetric top.
 Rotational symmetry number  1.
 Warning -- assumption of classical behavior for rotation
           may cause significant error
 Rotational temperatures (Kelvin)      0.12045     0.02115     0.01873
 Rotational constants (GHZ):           2.50980     0.44061     0.39035
 Zero-point vibrational energy     483127.6 (Joules/Mol)
                                  115.47026 (Kcal/Mol)
 Vibrational temperatures:     42.59    49.37    74.14   126.77   158.48
          (Kelvin)            248.50   271.53   287.43   313.21   435.14
                              436.47   476.71   558.74   574.72   715.33
                              797.25   921.34   933.73  1000.29  1042.23
                             1084.44  1188.52  1274.47  1338.67  1380.49
                             1424.05  1487.39  1511.98  1553.11  1596.77
                             1603.66  1704.92  1769.61  1802.58  1882.95
                             1920.13  1958.08  1968.50  2012.35  2027.41
                             2111.99  2146.97  2157.65  2176.30  2216.52
                             2406.77  2437.41  2726.48  4386.07  4391.93
                             4407.93  4460.86  4475.29  4499.04  4549.44
                             4566.95  4874.02  5001.15  5006.93  5260.04

 Zero-point correction=                           0.184014 (Hartree/Particle)
 Thermal correction to Energy=                    0.184014
 Thermal correction to Enthalpy=                  0.184014
 Thermal correction to Gibbs Free Energy=         0.184014
 Sum of electronic and zero-point Energies=           -875.889102
 Sum of electronic and thermal Energies=              -875.889102
 Sum of electronic and thermal Enthalpies=            -875.889102
 Sum of electronic and thermal Free Energies=         -875.889102

                     E (Thermal)             CV                S
                      KCal/Mol        Cal/Mol-Kelvin    Cal/Mol-Kelvin
 Total                  115.470              5.962            -27.980
 Electronic               0.000              0.000              0.000
 Translational            0.000              2.981            -21.394
 Rotational               0.000              2.981             -6.586
 Vibrational            115.470              0.000              0.000

 Optimization completed.
    -- Stationary point found.
 Normal termination of Gaussian 16 at Mon Oct 14 13:38:35 2019.
