 Gaussian 16, Revision A.03,
 Gaussian 16:  ES64L-G16RevA.03 25-Dec-2016

 --------------------------------------------------------------
 #p opt freq b3lyp/6-31g(d) geom=connectivity temperature=0.001
 --------------------------------------------------------------

 ----------------
 Benzene Sulfonyl
 ----------------
 Symbolic Z-matrix:
 Charge =  0 Multiplicity = 1

 SCF Done:  E(RB3LYP) =  -855.989298936     A.U. after   15 cycles
 SCF Done:  E(RB3LYP) =  -856.023650232     A.U. after   14 cycles
 SCF Done:  E(RB3LYP) =  -856.034800915     A.U. after   14 cycles
 SCF Done:  E(RB3LYP) =  -856.036822653     A.U. after   13 cycles
 SCF Done:  E(RB3LYP) =  -856.037552170     A.U. after   12 cycles
 SCF Done:  E(RB3LYP) =  -856.038517285     A.U. after   15 cycles
 SCF Done:  E(RB3LYP) =  -856.038981324     A.U. after   14 cycles
 SCF Done:  E(RB3LYP) =  -856.039175065     A.U. after   12 cycles
 SCF Done:  E(RB3LYP) =  -856.039206244     A.U. after   11 cycles
 SCF Done:  E(RB3LYP) =  -856.039212787     A.U. after   10 cycles
 SCF Done:  E(RB3LYP) =  -856.039381857     A.U. after   12 cycles
 SCF Done:  E(RB3LYP) =  -856.039327220     A.U. after   13 cycles
 SCF Done:  E(RB3LYP) =  -856.039404239     A.U. after   12 cycles
 SCF Done:  E(RB3LYP) =  -856.039423264     A.U. after   11 cycles
 SCF Done:  E(RB3LYP) =  -856.039425871     A.U. after   11 cycles
 SCF Done:  E(RB3LYP) =  -856.039424390     A.U. after   12 cycles
 SCF Done:  E(RB3LYP) =  -856.039427219     A.U. after   11 cycles
 SCF Done:  E(RB3LYP) =  -856.039427291     A.U. after    8 cycles
 SCF Done:  E(RB3LYP) =  -856.039427293     A.U. after    8 cycles
 Optimization completed.
    -- Stationary point found.
 Normal termination of Gaussian 16 at Mon Oct 14 13:38:15 2019.

 --------------------------------------------------------------------
 #P Geom=AllCheck Guess=TCheck SCRF=Check GenChk RB3LYP/6-31G(d) Freq
 --------------------------------------------------------------------

 Structure from the checkpoint file:  "05.chk"
 ----------------
 Benzene Sulfonyl
 ----------------
 Charge =  0 Multiplicity = 1

                         Standard orientation:
 ---------------------------------------------------------------------
 Center     Atomic      Atomic             Coordinates (Angstroms)
 Number     Number       Type             X           Y           Z
 ---------------------------------------------------------------------
      1          6           0       -0.982681    1.220394    0.071426
      2          6           0       -2.376026    1.222648    0.009875
      3          6           0       -3.076799    0.016182   -0.056065
      4          6           0       -2.390478   -1.200765   -0.053203
      5          6           0       -0.997815   -1.219251    0.011674
      6          6           0       -0.312412   -0.004037    0.066787
      7         16           0        1.472217   -0.017367    0.138344
      8          8           0        1.950874    1.285292    0.604384
      9          8           0        1.867817   -0.107511   -1.461789
     10          8           0        1.904549   -1.263840    0.752335
     11          1           0       -0.420661    2.145670    0.138995
     12          1           0       -2.913337    2.166470    0.018871
     13          1           0       -4.162173    0.023938   -0.103054
     14          1           0       -2.939214   -2.137034   -0.095320
     15          1           0       -0.447877   -2.153912    0.032070
     16          1           0        2.359122    0.710195   -1.667480
 ---------------------------------------------------------------------

 SCF Done:  E(RB3LYP) =  -856.039427293     A.U. after    1 cycles

 The electronic state is 1-A.
 Alpha  occ. eigenvalues --  -89.13532 -19.20697 -19.15933 -19.15711 -10.24101
 Alpha  occ. eigenvalues --  -10.22301 -10.22236 -10.21895 -10.21713 -10.21671
 Alpha  occ. eigenvalues --   -8.15908  -6.12511  -6.12293  -6.12169  -1.14616
 Alpha  occ. eigenvalues --   -1.03977  -1.01748  -0.88483  -0.79010  -0.77363
 Alpha  occ. eigenvalues --   -0.69148  -0.63352  -0.61686  -0.56558  -0.53313
 Alpha  occ. eigenvalues --   -0.50207  -0.48662  -0.47042  -0.46719  -0.44919
 Alpha  occ. eigenvalues --   -0.43987  -0.39858  -0.39327  -0.37310  -0.36711
 Alpha  occ. eigenvalues --   -0.34827  -0.32757  -0.32495  -0.31013  -0.27906
 Alpha  occ. eigenvalues --   -0.27708
 Alpha virt. eigenvalues --   -0.04712  -0.02661   0.03606   0.06847   0.08350
 Alpha virt. eigenvalues --    0.09471   0.11422   0.11785   0.13004   0.14653
 Alpha virt. eigenvalues --    0.15605   0.17113   0.18461   0.25879   0.28017

 Mulliken charges:
               1
     1  C   -0.139360
     2  C   -0.126276
     3  C   -0.117376
     4  C   -0.127088
     5  C   -0.131468
     6  C   -0.150311
     7  S    1.197260
     8  O   -0.531821
     9  O   -0.635823
    10  O   -0.489324
    11  H    0.180240
    12  H    0.149274
    13  H    0.147874
    14  H    0.150504
    15  H    0.184629
    16  H    0.439064
 Sum of Mulliken charges =  -0.00000

 Dipole moment (field-independent basis, Debye):
    X=             -3.7687    Y=              1.1902    Z=             -2.0062  Tot=              4.4322
 Quadrupole moment (field-independent basis, Debye-Ang):
   XX=            -58.9219   YY=            -61.2265   ZZ=            -66.2369
   XY=              3.2817   XZ=             -5.7617   YZ=             -2.2946

  Exact polarizability: 111.273   1.041  90.076   0.886  -0.162  43.875
 Approx polarizability: 163.749   1.098 166.759   4.640   0.513  69.810

                      1                      2                      3
                      A                      A                      A
 Frequencies --     31.6679               110.3306               126.2041
 Red. masses --      5.1370                 3.2516                 1.7562
 Frc consts  --      0.0030                 0.0233                 0.0165
 IR Inten    --      2.5694                33.7821                48.2232

                      4                      5                      6
                      A                      A                      A
 Frequencies --    185.5589               282.5647               309.4286
 Red. masses --      6.3476                 3.6115                 8.3348
 Frc consts  --      0.1288                 0.1699                 0.4702
 IR Inten    --      3.2820                 4.6700                 4.3727

                      7                      8                      9
                      A                      A                      A
 Frequencies --    346.1088               413.6214               441.7506
 Red. masses --      5.0016                 2.9725                 5.6351
 Frc consts  --      0.3530                 0.2996                 0.6479
 IR Inten    --      6.1677                 0.1214                16.5587

                     10                     11                     12
                      A                      A                      A
 Frequencies --    456.8404               528.6348               571.7073
 Red. masses --      6.5575                 5.3251                12.5018
 Frc consts  --      0.8063                 0.8768                 2.4075
 IR Inten    --      4.1558                18.6447               123.1272

                     13                     14                     15
                      A                      A                      A
 Frequencies --    627.3216               697.7552               713.6323
 Red. masses --      6.4362                 2.5938                 7.2823
 Frc consts  --      1.4923                 0.7440                 2.1851
 IR Inten    --      0.0104                13.0098                23.5309

                     16                     17                     18
                      A                      A                      A
 Frequencies --    763.5130               793.0391               861.5208
 Red. masses --      1.5305                 8.9001                 1.2434
 Frc consts  --      0.5257                 3.2979                 0.5437
 IR Inten    --    107.9363               213.1301                 0.1437

                     19                     20                     21
                      A                      A                      A
 Frequencies --    945.0735               981.8500              1009.4681
 Red. masses --      1.3209                 1.3543                 1.2776
 Frc consts  --      0.6951                 0.7692                 0.7670
 IR Inten    --      0.9196                 0.0572                 0.0343

                     22                     23                     24
                      A                      A                      A
 Frequencies --   1015.3646              1050.3740              1096.2793
 Red. masses --      6.3555                 2.9701                 3.2743
 Frc consts  --      3.8605                 1.9307                 2.3185
 IR Inten    --      2.9641                 2.5092                20.6332

                     25                     26                     27
                      A                      A                      A
 Frequencies --   1111.5335              1134.9452              1183.6098
 Red. masses --      1.5604                 2.0336                 2.2763
 Frc consts  --      1.1359                 1.5434                 1.8788
 IR Inten    --      4.3509                78.6403               207.7821

                     28                     29                     30
                      A                      A                      A
 Frequencies --   1197.0239              1211.7552              1345.0642
 Red. masses --      1.1082                 1.1587                 1.7685
 Frc consts  --      0.9355                 1.0024                 1.8851
 IR Inten    --      0.4328                 0.6297                 1.0459

                     31                     32                     33
                      A                      A                      A
 Frequencies --   1357.1811              1375.1079              1494.6710
 Red. masses --      3.6186                 6.2298                 2.1893
 Frc consts  --      3.9270                 6.9406                 2.8817
 IR Inten    --     90.4748                84.6163                20.6507

                     34                     35                     36
                      A                      A                      A
 Frequencies --   1527.3493              1645.6517              1645.8945
 Red. masses --      2.0475                 5.3379                 5.7627
 Frc consts  --      2.8142                 8.5172                 9.1976
 IR Inten    --      3.7531                 1.2032                 0.0963

                     37                     38                     39
                      A                      A                      A
 Frequencies --   3193.8110              3205.6565              3214.8618
 Red. masses --      1.0862                 1.0899                 1.0946
 Frc consts  --      6.5280                 6.5992                 6.6657
 IR Inten    --      0.6134                12.3366                13.8748

                     40                     41                     42
                      A                      A                      A
 Frequencies --   3230.6678              3232.4419              3700.5639
 Red. masses --      1.0932                 1.0943                 1.0660
 Frc consts  --      6.7228                 6.7367                 8.6005
 IR Inten    --      2.1271                 3.4256               119.5814

 - Thermochemistry -
 -------------------
 Temperature     0.001 Kelvin.  Pressure   1.00000 Atm.
 Atom     1 has atomic number  6 and mass  12.00000

 Molecular mass:   158.00377 amu.
 Principal axes and moments of inertia in atomic units:
                           1         2         3
     Eigenvalues --   696.178082184.003802503.97451
           X            0.99997   0.00367  -0.00641
           Y           -0.00372   0.99996  -0.00809
           Z            0.00638   0.00812   0.99995
 This molecule is an asymmetric top.
 Rotational symmetry number  1.
 Warning -- assumption of classical behavior for rotation
           may cause significant error
 Rotational temperatures (Kelvin)      0.12441     0.03966     0.03459
 Rotational constants (GHZ):           2.59236     0.82635     0.72075
 Zero-point vibrational energy     301264.0 (Joules/Mol)
                                   72.00381 (Kcal/Mol)
 Vibrational temperatures:     45.56   158.74   181.58   266.98   406.55
          (Kelvin)            445.20   497.97   595.11   635.58   657.29
                              760.59   822.56   902.58  1003.91  1026.76
                             1098.52  1141.01  1239.54  1359.75  1412.66
                             1452.40  1460.88  1511.25  1577.30  1599.25
                             1632.93  1702.95  1722.25  1743.45  1935.25
                             1952.68  1978.47  2150.50  2197.51  2367.73
                             2368.08  4595.18  4612.22  4625.47  4648.21
                             4650.76  5324.29

 Zero-point correction=                           0.114745 (Hartree/Particle)
 Thermal correction to Energy=                    0.114745
 Thermal correction to Enthalpy=                  0.114745
 Thermal correction to Gibbs Free Energy=         0.114745
 Sum of electronic and zero-point Energies=           -855.924682
 Sum of electronic and thermal Energies=              -855.924682
 Sum of electronic and thermal Enthalpies=            -855.924682
 Sum of electronic and thermal Free Energies=         -855.924682

                     E (Thermal)             CV                S
                      KCal/Mol        Cal/Mol-Kelvin    Cal/Mol-Kelvin
 Total                   72.004              5.962            -29.394
 Electronic               0.000              0.000              0.000
 Translational            0.000              2.981            -21.542
 Rotational               0.000              2.981             -7.852
 Vibrational             72.004              0.000              0.000

 Optimization completed.
    -- Stationary point found.
 Normal termination of Gaussian 16 at Mon Oct 14 13:38:37 2019.
