 Gaussian 16, Revision A.03,
 Gaussian 16:  ES64L-G16RevA.03 25-Dec-2016

 --------------------------------------------------------------
 #P opt freq b3lyp/6-31g(d) geom=connectivity temperature=0.001
 --------------------------------------------------------------

 ---------------------
 Benzene Sulfonyl Plus
 ---------------------
 Symbolic Z-matrix:
 Charge =  1 Multiplicity = 1

 SCF Done:  E(RB3LYP) =  -856.292105751     A.U. after   15 cycles
 SCF Done:  E(RB3LYP) =  -856.331376204     A.U. after   14 cycles
 SCF Done:  E(RB3LYP) =  -856.348603516     A.U. after   14 cycles
 SCF Done:  E(RB3LYP) =  -856.350341700     A.U. after   12 cycles
 SCF Done:  E(RB3LYP) =  -856.350811987     A.U. after   11 cycles
 SCF Done:  E(RB3LYP) =  -856.350969082     A.U. after   12 cycles
 SCF Done:  E(RB3LYP) =  -856.351061825     A.U. after   12 cycles
 SCF Done:  E(RB3LYP) =  -856.351120031     A.U. after   11 cycles
 SCF Done:  E(RB3LYP) =  -856.351167767     A.U. after   11 cycles
 SCF Done:  E(RB3LYP) =  -856.351192840     A.U. after   11 cycles
 SCF Done:  E(RB3LYP) =  -856.351776186     A.U. after   12 cycles
 SCF Done:  E(RB3LYP) =  -856.351822127     A.U. after   12 cycles
 SCF Done:  E(RB3LYP) =  -856.351860772     A.U. after   12 cycles
 SCF Done:  E(RB3LYP) =  -856.351869335     A.U. after   11 cycles
 SCF Done:  E(RB3LYP) =  -856.351873550     A.U. after    9 cycles
 SCF Done:  E(RB3LYP) =  -856.351878377     A.U. after    9 cycles
 SCF Done:  E(RB3LYP) =  -856.351886073     A.U. after   10 cycles
 SCF Done:  E(RB3LYP) =  -856.351892018     A.U. after   10 cycles
 SCF Done:  E(RB3LYP) =  -856.351893739     A.U. after    9 cycles
 Optimization completed.
    -- Stationary point found.
 Normal termination of Gaussian 16 at Mon Oct 14 13:38:17 2019.

 --------------------------------------------------------------------
 #P Geom=AllCheck Guess=TCheck SCRF=Check GenChk RB3LYP/6-31G(d) Freq
 --------------------------------------------------------------------

 Structure from the checkpoint file:  "05_p.chk"
 ---------------------
 Benzene Sulfonyl Plus
 ---------------------
 Charge =  1 Multiplicity = 1

                         Standard orientation:
 ---------------------------------------------------------------------
 Center     Atomic      Atomic             Coordinates (Angstroms)
 Number     Number       Type             X           Y           Z
 ---------------------------------------------------------------------
      1          6           0       -0.995019    1.227788   -0.016985
      2          6           0       -2.385599    1.229118    0.021029
      3          6           0       -3.093727    0.021184    0.032695
      4          6           0       -2.424621   -1.205471    0.000235
      5          6           0       -1.032833   -1.244196   -0.039084
      6          6           0       -0.349679   -0.019212   -0.047287
      7         16           0        1.396993   -0.125355   -0.047555
      8          8           0        1.979795    0.165857    1.418154
      9          8           0        1.806269    1.171586   -0.886211
     10          8           0        1.966790   -1.366439   -0.494206
     11          1           0       -0.441207    2.159942   -0.053263
     12          1           0       -2.917475    2.174820    0.032915
     13          1           0       -4.178821    0.039072    0.060870
     14          1           0       -2.983091   -2.135661   -0.000138
     15          1           0       -0.498424   -2.187611   -0.076540
     16          1           0        2.774639    1.193827   -1.063382
     17          1           0        1.558526    0.937997    1.854911
 ---------------------------------------------------------------------

 SCF Done:  E(RB3LYP) =  -856.351893739     A.U. after    1 cycles

 The electronic state is 1-A.
 Alpha  occ. eigenvalues --  -89.35989 -19.42978 -19.42287 -19.37827 -10.42404
 Alpha  occ. eigenvalues --  -10.39039 -10.38759 -10.36900 -10.36755 -10.36561
 Alpha  occ. eigenvalues --   -8.38559  -6.35128  -6.35007  -6.34705  -1.37258
 Alpha  occ. eigenvalues --   -1.27347  -1.25483  -1.05512  -0.98007  -0.93261
 Alpha  occ. eigenvalues --   -0.90222  -0.82997  -0.80665  -0.78487  -0.73600
 Alpha  occ. eigenvalues --   -0.70558  -0.67415  -0.67241  -0.63619  -0.63318
 Alpha  occ. eigenvalues --   -0.61086  -0.60396  -0.59591  -0.57608  -0.55301
 Alpha  occ. eigenvalues --   -0.54533  -0.53625  -0.52660  -0.52467  -0.44325
 Alpha  occ. eigenvalues --   -0.43216
 Alpha virt. eigenvalues --   -0.22720  -0.18460  -0.17767  -0.15171  -0.12273
 Alpha virt. eigenvalues --   -0.11366  -0.09653  -0.07918  -0.03716  -0.01531
 Alpha virt. eigenvalues --   -0.00971   0.00651   0.04059   0.04410   0.09286

 Mulliken charges:
               1
     1  C   -0.120672
     2  C   -0.118660
     3  C   -0.095430
     4  C   -0.119850
     5  C   -0.113369
     6  C   -0.199117
     7  S    1.242800
     8  O   -0.546884
     9  O   -0.580524
    10  O   -0.379586
    11  H    0.204764
    12  H    0.204852
    13  H    0.207009
    14  H    0.207660
    15  H    0.226838
    16  H    0.499209
    17  H    0.480959
 Sum of Mulliken charges =   1.00000

 Dipole moment (field-independent basis, Debye):
    X=             -0.1176    Y=              3.1324    Z=              1.0044  Tot=              3.2916
 Quadrupole moment (field-independent basis, Debye-Ang):
   XX=            -32.4867   YY=            -51.2364   ZZ=            -59.4177
   XY=              8.8495   XZ=             -1.7957   YZ=              1.6876

  Exact polarizability: 117.073   0.012  88.594  -1.343   1.427  44.000
 Approx polarizability: 178.311  -4.589 163.002  -2.225   3.639  69.278

                      1                      2                      3
                      A                      A                      A
 Frequencies --     42.2015               110.4770               170.8166
 Red. masses --      5.1228                 5.0524                 4.7088
 Frc consts  --      0.0054                 0.0363                 0.0810
 IR Inten    --      1.4888                 1.6508                13.1635

                      4                      5                      6
                      A                      A                      A
 Frequencies --    240.1309               254.0065               300.7707
 Red. masses --      1.9926                 1.2649                 6.6727
 Frc consts  --      0.0677                 0.0481                 0.3556
 IR Inten    --     38.9519               105.7872                16.5407

                      7                      8                      9
                      A                      A                      A
 Frequencies --    317.0969               362.5188               403.1549
 Red. masses --      3.0417                 2.9714                 2.9241
 Frc consts  --      0.1802                 0.2301                 0.2800
 IR Inten    --      3.9267                53.5634                 0.3050

                     10                     11                     12
                      A                      A                      A
 Frequencies --    440.7867               447.4757               495.8018
 Red. masses --      3.2832                 5.9719                 5.5171
 Frc consts  --      0.3758                 0.7045                 0.7991
 IR Inten    --     29.8745                47.4070                53.8662

                     13                     14                     15
                      A                      A                      A
 Frequencies --    519.9983               617.8354               675.4895
 Red. masses --      7.3841                 6.4820                 2.9179
 Frc consts  --      1.1764                 1.4578                 0.7844
 IR Inten    --     86.9624                 0.3712                14.3181

                     16                     17                     18
                      A                      A                      A
 Frequencies --    700.7787               760.1849               828.2320
 Red. masses --      6.9249                 1.2891                11.5157
 Frc consts  --      2.0037                 0.4389                 4.6542
 IR Inten    --      4.4084                65.4394               250.5345

                     19                     20                     21
                      A                      A                      A
 Frequencies --    844.7445               884.6277               954.5151
 Red. masses --      1.2575                16.9251                 1.2698
 Frc consts  --      0.5287                 7.8037                 0.6817
 IR Inten    --      2.7209               247.1599                 1.1216

                     22                     23                     24
                      A                      A                      A
 Frequencies --    995.3734              1008.3666              1038.2529
 Red. masses --      1.3603                 6.1858                 1.3571
 Frc consts  --      0.7941                 3.7058                 0.8619
 IR Inten    --      0.0235                 1.8179                 0.7775

                     25                     26                     27
                      A                      A                      A
 Frequencies --   1041.0538              1073.4038              1118.7565
 Red. masses --      3.9454                 2.2398                 1.2718
 Frc consts  --      2.5193                 1.5205                 0.9379
 IR Inten    --     19.4587                75.3663                84.2174

                     28                     29                     30
                      A                      A                      A
 Frequencies --   1127.3935              1159.9169              1210.5756
 Red. masses --      1.4538                 1.2712                 1.0986
 Frc consts  --      1.0887                 1.0077                 0.9486
 IR Inten    --     43.7813               105.7397                 0.1831

                     31                     32                     33
                      A                      A                      A
 Frequencies --   1222.3288              1348.8090              1361.9426
 Red. masses --      1.1645                 3.9893                 2.0061
 Frc consts  --      1.0251                 4.2761                 2.1924
 IR Inten    --      1.2005                85.2555                91.0533

                     34                     35                     36
                      A                      A                      A
 Frequencies --   1376.9346              1496.1813              1514.0912
 Red. masses --      4.0350                 2.1949                 1.8864
 Frc consts  --      4.5074                 2.8949                 2.5479
 IR Inten    --      7.7490                39.5103                 2.4090

                     37                     38                     39
                      A                      A                      A
 Frequencies --   1623.8747              1632.2763              3218.7158
 Red. masses --      4.9475                 5.3010                 1.0884
 Frc consts  --      7.6868                 8.3213                 6.6438
 IR Inten    --     16.2034                 0.7980                 0.4281

                     40                     41                     42
                      A                      A                      A
 Frequencies --   3225.2049              3229.6718              3235.8817
 Red. masses --      1.0897                 1.0923                 1.0958
 Frc consts  --      6.6785                 6.7129                 6.7602
 IR Inten    --      1.0601                 1.8861                 2.6861

                     43                     44                     45
                      A                      A                      A
 Frequencies --   3239.9075              3598.0589              3626.4577
 Red. masses --      1.0984                 1.0662                 1.0669
 Frc consts  --      6.7933                 8.1322                 8.2665
 IR Inten    --      1.1760               319.3445               153.3546

 - Thermochemistry -
 -------------------
 Temperature     0.001 Kelvin.  Pressure   1.00000 Atm.
 Atom     1 has atomic number  6 and mass  12.00000

 Molecular mass:   159.01159 amu.
 Principal axes and moments of inertia in atomic units:
                           1         2         3
     Eigenvalues --   712.534192206.767822537.98999
           X            0.99994   0.01110  -0.00068
           Y           -0.01109   0.99992   0.00645
           Z            0.00075  -0.00645   0.99998
 This molecule is an asymmetric top.
 Rotational symmetry number  1.
 Warning -- assumption of classical behavior for rotation
           may cause significant error
 Rotational temperatures (Kelvin)      0.12156     0.03925     0.03413
 Rotational constants (GHZ):           2.53285     0.81782     0.71109
 Zero-point vibrational energy     329541.7 (Joules/Mol)
                                   78.76236 (Kcal/Mol)
 Vibrational temperatures:     60.72   158.95   245.77   345.49   365.46
          (Kelvin)            432.74   456.23   521.58   580.05   634.19
                              643.82   713.35   748.16   888.93   971.88
                             1008.26  1093.74  1191.64  1215.40  1272.78
                             1373.33  1432.12  1450.81  1493.81  1497.84
                             1544.39  1609.64  1622.07  1668.86  1741.75
                             1758.66  1940.64  1959.53  1981.10  2152.67
                             2178.44  2336.39  2348.48  4631.01  4640.35
                             4646.78  4655.71  4661.50  5176.80  5217.66

 Zero-point correction=                           0.125516 (Hartree/Particle)
 Thermal correction to Energy=                    0.125516
 Thermal correction to Enthalpy=                  0.125516
 Thermal correction to Gibbs Free Energy=         0.125516
 Sum of electronic and zero-point Energies=           -856.226378
 Sum of electronic and thermal Energies=              -856.226378
 Sum of electronic and thermal Enthalpies=            -856.226378
 Sum of electronic and thermal Free Energies=         -856.226378

                     E (Thermal)             CV                S
                      KCal/Mol        Cal/Mol-Kelvin    Cal/Mol-Kelvin
 Total                   78.762              5.962            -29.328
 Electronic               0.000              0.000              0.000
 Translational            0.000              2.981            -21.523
 Rotational               0.000              2.981             -7.805
 Vibrational             78.762              0.000              0.000

 Optimization completed.
    -- Stationary point found.
 Normal termination of Gaussian 16 at Mon Oct 14 13:38:42 2019.
