 Gaussian 16, Revision A.03,
 Gaussian 16:  ES64L-G16RevA.03 25-Dec-2016

 ------------------------------------------------------------
 #P opt freq b3lyp/DGDZVP geom=connectivity temperature=0.001
 ------------------------------------------------------------

 ----------------------
 pyridone_1_acetic_acid
 ----------------------
 Symbolic Z-matrix:
 Charge =  0 Multiplicity = 1

 SCF Done:  E(RB3LYP) =  -14389.9286813     A.U. after   18 cycles
 SCF Done:  E(RB3LYP) =  -14389.9535406     A.U. after   14 cycles
 SCF Done:  E(RB3LYP) =  -14389.9613541     A.U. after   14 cycles
 SCF Done:  E(RB3LYP) =  -14389.9617743     A.U. after   12 cycles
 SCF Done:  E(RB3LYP) =  -14389.9621975     A.U. after   13 cycles
 SCF Done:  E(RB3LYP) =  -14389.9625271     A.U. after   15 cycles
 SCF Done:  E(RB3LYP) =  -14389.9626764     A.U. after   12 cycles
 SCF Done:  E(RB3LYP) =  -14389.9627626     A.U. after   13 cycles
 SCF Done:  E(RB3LYP) =  -14389.9628080     A.U. after   11 cycles
 SCF Done:  E(RB3LYP) =  -14389.9628332     A.U. after   11 cycles
 SCF Done:  E(RB3LYP) =  -14389.9639157     A.U. after   14 cycles
 SCF Done:  E(RB3LYP) =  -14389.9643378     A.U. after   14 cycles
 SCF Done:  E(RB3LYP) =  -14389.9643320     A.U. after   14 cycles
 SCF Done:  E(RB3LYP) =  -14389.9645997     A.U. after   14 cycles
 SCF Done:  E(RB3LYP) =  -14389.9647502     A.U. after   12 cycles
 SCF Done:  E(RB3LYP) =  -14389.9648174     A.U. after   13 cycles
 SCF Done:  E(RB3LYP) =  -14389.9648233     A.U. after   11 cycles
 SCF Done:  E(RB3LYP) =  -14389.9648252     A.U. after    9 cycles
 SCF Done:  E(RB3LYP) =  -14389.9648253     A.U. after    8 cycles
 Optimization completed.
    -- Stationary point found.
 Normal termination of Gaussian 16 at Mon Oct 14 13:42:01 2019.

 ------------------------------------------------------------------
 #P Geom=AllCheck Guess=TCheck SCRF=Check GenChk RB3LYP/DGDZVP Freq
 ------------------------------------------------------------------

 Structure from the checkpoint file:  "06.chk"
 ----------------------
 pyridone_1_acetic_acid
 ----------------------
 Charge =  0 Multiplicity = 1

                         Standard orientation:
 ---------------------------------------------------------------------
 Center     Atomic      Atomic             Coordinates (Angstroms)
 Number     Number       Type             X           Y           Z
 ---------------------------------------------------------------------
      1          6           0       -1.221876   -0.240957   -0.178073
      2          6           0       -1.187203    1.084081   -0.490817
      3          7           0        0.000600    1.755952   -0.668523
      4          6           0        1.187840    1.083040   -0.490883
      5          6           0        1.221400   -0.242021   -0.178137
      6          6           0       -0.000597   -1.044836    0.009669
      7          8           0       -0.001110   -2.243810    0.286023
      8         53           0       -3.083174   -1.218025    0.051572
      9         53           0        3.081846   -1.220694    0.051467
     10          6           0        0.001314    3.185353   -0.933104
     11          6           0        0.002446    4.032798    0.340945
     12          8           0        0.002757    3.608701    1.472350
     13          8           0        0.003216    5.348742    0.015856
     14          1           0       -0.874062    3.454888   -1.530598
     15          1           0        0.876378    3.453830   -1.531526
     16          1           0       -2.087749    1.673657   -0.622114
     17          1           0        2.088890    1.671837   -0.622233
     18          1           0        0.003912    5.852397    0.853623
 ---------------------------------------------------------------------

 SCF Done:  E(RB3LYP) =  -14389.9648253     A.U. after    1 cycles

 The electronic state is 1-A.
 Alpha  occ. eigenvalues -- ********************-176.37195-176.37195-165.75457
 Alpha  occ. eigenvalues -- -165.75456-165.75242-165.75242-165.75235-165.75235
 Alpha  occ. eigenvalues --  -35.81478 -35.81478 -31.32635 -31.32629 -31.32033
 Alpha  occ. eigenvalues --  -31.32032 -31.32010 -31.32009 -22.96730 -22.96729
 Alpha  occ. eigenvalues --  -22.96599 -22.96599 -22.96582 -22.96582 -22.96172
 Alpha  occ. eigenvalues --  -22.96171 -22.96171 -22.96171 -19.22964 -19.18140
 Alpha  occ. eigenvalues --  -19.11357 -14.44144 -10.38613 -10.30140 -10.29725
 Alpha  occ. eigenvalues --  -10.28379 -10.28378 -10.25934 -10.25934  -6.35072
 Alpha  occ. eigenvalues --   -6.35071  -4.76870  -4.76870  -4.75348  -4.75348
 Alpha  occ. eigenvalues --   -4.75289  -4.75289  -2.03503  -2.03503  -2.03009
 Alpha  occ. eigenvalues --   -2.03009  -2.02971  -2.02970  -2.01647  -2.01647
 Alpha  occ. eigenvalues --   -2.01647  -2.01647  -1.15645  -1.07036  -1.03990
 Alpha  occ. eigenvalues --   -1.02678  -0.85525  -0.82357  -0.78462  -0.70756
 Alpha  occ. eigenvalues --   -0.68130  -0.66360  -0.63063  -0.61296  -0.56241
 Alpha  occ. eigenvalues --   -0.56018  -0.55039  -0.52719  -0.51594  -0.49391
 Alpha  occ. eigenvalues --   -0.47123  -0.46555  -0.44958  -0.43824  -0.42283
 Alpha  occ. eigenvalues --   -0.39822  -0.38933  -0.37312  -0.36462  -0.33721
 Alpha  occ. eigenvalues --   -0.33178  -0.29024  -0.26996  -0.26936  -0.25670
 Alpha  occ. eigenvalues --   -0.25398  -0.23500
 Alpha virt. eigenvalues --   -0.05779  -0.05624  -0.05314  -0.03943  -0.02808
 Alpha virt. eigenvalues --    0.02841   0.04599   0.08768   0.09957   0.10439
 Alpha virt. eigenvalues --    0.11405   0.11909   0.13935   0.15343   0.16172

 Mulliken charges:
               1
     1  C   -0.112069
     2  C   -0.143828
     3  N   -0.103392
     4  C   -0.143767
     5  C   -0.112077
     6  C    0.467576
     7  O   -0.366988
     8  I   -0.057745
     9  I   -0.057740
    10  C   -0.474879
    11  C    0.392937
    12  O   -0.316474
    13  O   -0.502602
    14  H    0.283129
    15  H    0.283158
    16  H    0.258624
    17  H    0.258639
    18  H    0.447498
 Sum of Mulliken charges =  -0.00000

 Dipole moment (field-independent basis, Debye):
    X=              0.0035    Y=              8.4876    Z=             -2.6274  Tot=              8.8850
 Quadrupole moment (field-independent basis, Debye-Ang):
   XX=           -115.6953   YY=           -103.7837   ZZ=           -122.2075
   XY=              0.0054   XZ=             -0.0018   YZ=             -2.5738

  Exact polarizability: 194.623  -0.001 178.780  -0.004 -14.892  90.385
 Approx polarizability: 277.599   0.010 300.768  -0.012 -41.324 157.634

                      1                      2                      3
                      A                      A                      A
 Frequencies --     21.3744                35.8204                49.8451
 Red. masses --     11.9489                 9.2126                10.2354
 Frc consts  --      0.0032                 0.0070                 0.0150
 IR Inten    --      0.8230                 0.3353                 0.0715

                      4                      5                      6
                      A                      A                      A
 Frequencies --     58.5090                90.3386               177.1125
 Red. masses --     16.0373                25.1098                 4.4482
 Frc consts  --      0.0323                 0.1207                 0.0822
 IR Inten    --      3.3038                 0.0286                 5.0656

                      7                      8                      9
                      A                      A                      A
 Frequencies --    185.1046               197.3083               208.6628
 Red. masses --     12.5549                 4.7042                15.1452
 Frc consts  --      0.2535                 0.1079                 0.3885
 IR Inten    --      1.5271                 0.1585                 0.3255

                     10                     11                     12
                      A                      A                      A
 Frequencies --    245.3191               300.3230               338.5550
 Red. masses --      9.6056                 7.8317                 8.1839
 Frc consts  --      0.3406                 0.4162                 0.5527
 IR Inten    --      1.2524                 3.0713                 0.0526

                     13                     14                     15
                      A                      A                      A
 Frequencies --    385.6951               444.6518               501.8844
 Red. masses --      2.9909                 4.3860                 1.7451
 Frc consts  --      0.2621                 0.5109                 0.2590
 IR Inten    --      0.3381                 0.0002                26.5028

                     16                     17                     18
                      A                      A                      A
 Frequencies --    510.4535               548.4370               592.2052
 Red. masses --      4.1234                 5.4423                 5.5591
 Frc consts  --      0.6330                 0.9645                 1.1487
 IR Inten    --      5.5105                79.9323                 0.6612

                     19                     20                     21
                      A                      A                      A
 Frequencies --    652.5029               659.0181               721.6592
 Red. masses --      6.1039                 1.5019                 9.3132
 Frc consts  --      1.5312                 0.3843                 2.8577
 IR Inten    --     16.6005               120.5050                47.9895

                     22                     23                     24
                      A                      A                      A
 Frequencies --    764.4303               834.7877               862.1862
 Red. masses --     12.1521                 5.5588                 4.0448
 Frc consts  --      4.1838                 2.2823                 1.7715
 IR Inten    --     13.4316                21.6750                 1.2158

                     25                     26                     27
                      A                      A                      A
 Frequencies --    872.3734               893.5594               908.8636
 Red. masses --      1.4027                 1.3895                 5.8724
 Frc consts  --      0.6289                 0.6536                 2.8580
 IR Inten    --      0.0012                27.0369                11.8613

                     28                     29                     30
                      A                      A                      A
 Frequencies --    992.3434              1089.2343              1142.9306
 Red. masses --      2.4912                 4.2245                 3.8322
 Frc consts  --      1.4454                 2.9531                 2.9494
 IR Inten    --     22.7750                 3.0254                28.6673

                     31                     32                     33
                      A                      A                      A
 Frequencies --   1164.1279              1247.6129              1248.2459
 Red. masses --      2.9189                 2.3118                 1.1986
 Frc consts  --      2.3306                 2.1201                 1.1004
 IR Inten    --    472.2735               175.3072                 2.7030

                     34                     35                     36
                      A                      A                      A
 Frequencies --   1318.3268              1372.4802              1393.1425
 Red. masses --      1.4943                 1.5956                 2.1581
 Frc consts  --      1.5301                 1.7708                 2.4679
 IR Inten    --     38.7667                20.3432                 6.9350

                     37                     38                     39
                      A                      A                      A
 Frequencies --   1418.3836              1470.2925              1483.4766
 Red. masses --      2.0197                 4.3510                 1.1078
 Frc consts  --      2.3940                 5.5418                 1.4364
 IR Inten    --     16.1301                48.2530                17.3443

                     40                     41                     42
                      A                      A                      A
 Frequencies --   1574.5264              1660.5821              1700.5864
 Red. masses --      6.2321                 5.1502                13.0569
 Frc consts  --      9.1029                 8.3674                22.2479
 IR Inten    --      3.5477                77.5261               265.4968

                     43                     44                     45
                      A                      A                      A
 Frequencies --   1849.0243              3086.7165              3143.2633
 Red. masses --     10.3113                 1.0618                 1.1051
 Frc consts  --     20.7706                 5.9606                 6.4329
 IR Inten    --    274.8583                20.3615                 0.1609

                     46                     47                     48
                      A                      A                      A
 Frequencies --   3231.0755              3234.0893              3698.2066
 Red. masses --      1.0930                 1.0949                 1.0648
 Frc consts  --      6.7233                 6.7474                 8.5800
 IR Inten    --      0.0604                 0.1725                99.6165

 - Thermochemistry -
 -------------------
 Temperature     0.001 Kelvin.  Pressure   1.00000 Atm.
 Atom     1 has atomic number  6 and mass  12.00000

 Molecular mass:   404.82774 amu.
 Principal axes and moments of inertia in atomic units:
                           1         2         3
     Eigenvalues --  5882.110549138.44749**********
           X            1.00000   0.00019   0.00000
           Y           -0.00019   0.99999  -0.00388
           Z           -0.00000   0.00388   0.99999
 This molecule is an asymmetric top.
 Rotational symmetry number  1.
 Warning -- assumption of classical behavior for rotation
           may cause significant error
 Rotational temperatures (Kelvin)      0.01472     0.00948     0.00596
 Rotational constants (GHZ):           0.30682     0.19749     0.12413
 Zero-point vibrational energy     302533.5 (Joules/Mol)
                                   72.30724 (Kcal/Mol)
 Vibrational temperatures:     30.75    51.54    71.72    84.18   129.98
          (Kelvin)            254.83   266.32   283.88   300.22   352.96
                              432.10   487.11   554.93   639.75   722.10
                              734.43   789.08   852.05   938.81   948.18
                             1038.31  1099.84  1201.07  1240.49  1255.15
                             1285.63  1307.65  1427.76  1567.17  1644.42
                             1674.92  1795.04  1795.95  1896.78  1974.69
                             2004.42  2040.74  2115.42  2134.39  2265.39
                             2389.21  2446.76  2660.33  4441.10  4522.45
                             4648.80  4653.13  5320.89

 Zero-point correction=                           0.115229 (Hartree/Particle)
 Thermal correction to Energy=                    0.115229
 Thermal correction to Enthalpy=                  0.115229
 Thermal correction to Gibbs Free Energy=         0.115229
 Sum of electronic and zero-point Energies=         -14389.849596
 Sum of electronic and thermal Energies=            -14389.849596
 Sum of electronic and thermal Enthalpies=          -14389.849596
 Sum of electronic and thermal Free Energies=       -14389.849596

                     E (Thermal)             CV                S
                      KCal/Mol        Cal/Mol-Kelvin    Cal/Mol-Kelvin
 Total                   72.307              5.962            -21.299
 Electronic               0.000              0.000              0.000
 Translational            0.000              2.981            -18.737
 Rotational               0.000              2.981             -2.562
 Vibrational             72.307              0.000              0.000

 Optimization completed.
    -- Stationary point found.
 Normal termination of Gaussian 16 at Mon Oct 14 13:42:55 2019.
