 Gaussian 16, Revision A.03,
 Gaussian 16:  ES64L-G16RevA.03 25-Dec-2016

 ------------------------------------------------------------
 #P opt freq b3lyp/DGDZVP geom=connectivity temperature=0.001
 ------------------------------------------------------------

 ---------------------------
 pyridone_1_acetic_acid_plus
 ---------------------------
 Symbolic Z-matrix:
 Charge =  1 Multiplicity = 1

 SCF Done:  E(RB3LYP) =  -14390.2860239     A.U. after   17 cycles
 SCF Done:  E(RB3LYP) =  -14390.3136953     A.U. after   13 cycles
 SCF Done:  E(RB3LYP) =  -14390.3240650     A.U. after   13 cycles
 SCF Done:  E(RB3LYP) =  -14390.3265244     A.U. after   12 cycles
 SCF Done:  E(RB3LYP) =  -14390.3282973     A.U. after   14 cycles
 SCF Done:  E(RB3LYP) =  -14390.3294141     A.U. after   12 cycles
 SCF Done:  E(RB3LYP) =  -14390.3301161     A.U. after   13 cycles
 SCF Done:  E(RB3LYP) =  -14390.3315943     A.U. after   16 cycles
 SCF Done:  E(RB3LYP) =  -14390.3322321     A.U. after   13 cycles
 SCF Done:  E(RB3LYP) =  -14390.3329694     A.U. after   14 cycles
 SCF Done:  E(RB3LYP) =  -14390.3332273     A.U. after   12 cycles
 SCF Done:  E(RB3LYP) =  -14390.3332702     A.U. after   15 cycles
 SCF Done:  E(RB3LYP) =  -14390.3333592     A.U. after   16 cycles
 SCF Done:  E(RB3LYP) =  -14390.3334493     A.U. after   12 cycles
 SCF Done:  E(RB3LYP) =  -14390.3334698     A.U. after   12 cycles
 SCF Done:  E(RB3LYP) =  -14390.3334743     A.U. after   12 cycles
 SCF Done:  E(RB3LYP) =  -14390.3334778     A.U. after   10 cycles
 SCF Done:  E(RB3LYP) =  -14390.3334778     A.U. after    8 cycles
 SCF Done:  E(RB3LYP) =  -14390.3334777     A.U. after    7 cycles
 Optimization completed.
    -- Stationary point found.
 Normal termination of Gaussian 16 at Mon Oct 14 13:42:44 2019.

 ------------------------------------------------------------------
 #P Geom=AllCheck Guess=TCheck SCRF=Check GenChk RB3LYP/DGDZVP Freq
 ------------------------------------------------------------------

 Structure from the checkpoint file:  "06_p.chk"
 ---------------------------
 pyridone_1_acetic_acid_plus
 ---------------------------
 Charge =  1 Multiplicity = 1

                         Standard orientation:
 ---------------------------------------------------------------------
 Center     Atomic      Atomic             Coordinates (Angstroms)
 Number     Number       Type             X           Y           Z
 ---------------------------------------------------------------------
      1          6           0       -1.312207   -0.004267   -0.162988
      2          6           0       -1.045631    1.315170   -0.469945
      3          7           0        0.226784    1.763573   -0.645663
      4          6           0        1.280944    0.920788   -0.500877
      5          6           0        1.090677   -0.412763   -0.196226
      6          6           0       -0.226491   -0.907596   -0.017764
      7          8           0       -0.506433   -2.168397    0.276577
      8         53           0       -3.301625   -0.645018    0.085133
      9         53           0        2.755931   -1.698479    0.013078
     10          6           0        0.477621    3.193617   -0.909384
     11          6           0        1.070964    3.881841    0.327787
     12          8           0        1.514966    3.289004    1.283657
     13          8           0        1.041653    5.210108    0.159987
     14          1           0       -0.453686    3.677840   -1.204031
     15          1           0        1.175899    3.293704   -1.744966
     16          1           0       -1.838392    2.044647   -0.587545
     17          1           0        2.267159    1.348514   -0.632590
     18          1           0        1.455981    5.634849    0.939296
     19          1           0        0.310611   -2.705684    0.358933
 ---------------------------------------------------------------------

 SCF Done:  E(RB3LYP) =  -14390.3334777     A.U. after    1 cycles

 The electronic state is 1-A.
 Alpha  occ. eigenvalues -- ********************-176.53179-176.51350-165.91453
 Alpha  occ. eigenvalues -- -165.91217-165.91212-165.89633-165.89390-165.89378
 Alpha  occ. eigenvalues --  -35.97477 -35.95629 -31.48671 -31.48004 -31.47991
 Alpha  occ. eigenvalues --  -31.46845 -31.46157 -31.46121 -23.12753 -23.12603
 Alpha  occ. eigenvalues --  -23.12596 -23.12138 -23.12138 -23.10923 -23.10775
 Alpha  occ. eigenvalues --  -23.10749 -23.10277 -23.10277 -19.35629 -19.33847
 Alpha  occ. eigenvalues --  -19.29374 -14.61229 -10.50255 -10.48252 -10.44560
 Alpha  occ. eigenvalues --  -10.44339 -10.43144 -10.42745 -10.42540  -6.51113
 Alpha  occ. eigenvalues --   -6.49230  -4.92987  -4.91364  -4.91281  -4.91164
 Alpha  occ. eigenvalues --   -4.89443  -4.89363  -2.19612  -2.19123  -2.19027
 Alpha  occ. eigenvalues --   -2.17775  -2.17641  -2.17637  -2.17231  -2.17179
 Alpha  occ. eigenvalues --   -2.15685  -2.15685  -1.26912  -1.26617  -1.20344
 Alpha  occ. eigenvalues --   -1.18125  -1.02348  -0.98627  -0.93544  -0.87834
 Alpha  occ. eigenvalues --   -0.84663  -0.81715  -0.78094  -0.76716  -0.76228
 Alpha  occ. eigenvalues --   -0.72056  -0.69175  -0.68621  -0.64737  -0.64144
 Alpha  occ. eigenvalues --   -0.62773  -0.62234  -0.62044  -0.58472  -0.57270
 Alpha  occ. eigenvalues --   -0.56428  -0.55784  -0.54848  -0.51772  -0.49375
 Alpha  occ. eigenvalues --   -0.48187  -0.46748  -0.44543  -0.43259  -0.40874
 Alpha  occ. eigenvalues --   -0.40452  -0.39451
 Alpha virt. eigenvalues --   -0.23352  -0.21530  -0.20909  -0.17495  -0.15705
 Alpha virt. eigenvalues --   -0.08621  -0.08041  -0.07295  -0.06804  -0.03264
 Alpha virt. eigenvalues --   -0.02648  -0.01364  -0.00702   0.00317   0.01444

 Mulliken charges:
               1
     1  C   -0.081954
     2  C   -0.137074
     3  N   -0.072963
     4  C   -0.093886
     5  C   -0.140817
     6  C    0.507700
     7  O   -0.457592
     8  I    0.103358
     9  I    0.086859
    10  C   -0.458345
    11  C    0.405555
    12  O   -0.316517
    13  O   -0.475203
    14  H    0.294813
    15  H    0.311503
    16  H    0.296613
    17  H    0.307911
    18  H    0.469348
    19  H    0.450691
 Sum of Mulliken charges =   1.00000

 Dipole moment (field-independent basis, Debye):
    X=              1.9852    Y=              5.3463    Z=             -2.3340  Tot=              6.1621
 Quadrupole moment (field-independent basis, Debye-Ang):
   XX=            -91.6644   YY=            -70.7371   ZZ=           -116.9504
   XY=              0.4074   XZ=             -1.8936   YZ=             -4.6728

  Exact polarizability: 200.182  -2.750 172.564  -0.348 -12.655  86.005
 Approx polarizability: 307.517  -4.273 275.448  -1.479 -33.286 147.652

                      1                      2                      3
                      A                      A                      A
 Frequencies --     23.8485                43.0991                59.6340
 Red. masses --     10.3178                 9.5665                10.9144
 Frc consts  --      0.0035                 0.0105                 0.0229
 IR Inten    --      1.5300                 0.4881                 0.2707

                      4                      5                      6
                      A                      A                      A
 Frequencies --     70.6049                98.0674               181.2089
 Red. masses --      9.0969                22.3647                 4.1175
 Frc consts  --      0.0267                 0.1267                 0.0797
 IR Inten    --      0.1668                 1.0842                 1.0258

                      7                      8                      9
                      A                      A                      A
 Frequencies --    188.5037               194.5810               216.1769
 Red. masses --      4.8735                 8.7888                11.3340
 Frc consts  --      0.1020                 0.1961                 0.3121
 IR Inten    --      0.7777                 1.0084                 2.3204

                     10                     11                     12
                      A                      A                      A
 Frequencies --    256.8743               329.7820               358.3652
 Red. masses --      8.2179                 7.7482                 6.4611
 Frc consts  --      0.3195                 0.4965                 0.4889
 IR Inten    --      4.1574                 1.3241                 4.9943

                     13                     14                     15
                      A                      A                      A
 Frequencies --    386.2342               462.9096               509.9191
 Red. masses --      3.4102                 3.5582                 1.8878
 Frc consts  --      0.2997                 0.4492                 0.2892
 IR Inten    --      1.7272                 6.7064                20.2125

                     16                     17                     18
                      A                      A                      A
 Frequencies --    544.8068               551.3282               559.2960
 Red. masses --      3.4411                 1.3105                 4.1199
 Frc consts  --      0.6018                 0.2347                 0.7593
 IR Inten    --     67.6400                66.9187                21.4887

                     19                     20                     21
                      A                      A                      A
 Frequencies --    571.0989               660.1988               677.7133
 Red. masses --      4.1574                 2.0490                 2.5833
 Frc consts  --      0.7989                 0.5262                 0.6991
 IR Inten    --     11.8546                83.5520                60.3437

                     22                     23                     24
                      A                      A                      A
 Frequencies --    744.4267               745.8124               832.9338
 Red. masses --      8.6896                 8.4687                 5.2608
 Frc consts  --      2.8372                 2.7754                 2.1504
 IR Inten    --     15.0228                30.9129                 5.9575

                     25                     26                     27
                      A                      A                      A
 Frequencies --    872.7097               893.1968               908.9627
 Red. masses --      3.1239                 1.4376                 1.4750
 Frc consts  --      1.4018                 0.6757                 0.7180
 IR Inten    --     22.1478                 0.4922                20.0553

                     28                     29                     30
                      A                      A                      A
 Frequencies --    940.5791               996.1697              1128.3092
 Red. masses --      6.6500                 2.3473                 4.1627
 Frc consts  --      3.4663                 1.3724                 3.1224
 IR Inten    --      1.1918                13.2750                 6.9489

                     31                     32                     33
                      A                      A                      A
 Frequencies --   1167.6060              1185.6083              1227.6219
 Red. masses --      1.9369                 2.4450                 2.0107
 Frc consts  --      1.5558                 2.0249                 1.7854
 IR Inten    --     66.6624               508.2249                37.8785

                     34                     35                     36
                      A                      A                      A
 Frequencies --   1244.5953              1319.7880              1324.9750
 Red. masses --      1.4745                 1.4249                 1.3931
 Frc consts  --      1.3457                 1.4623                 1.4410
 IR Inten    --     51.8322                14.0525                75.5998

                     37                     38                     39
                      A                      A                      A
 Frequencies --   1357.9089              1391.2002              1418.8632
 Red. masses --      2.2658                 3.2723                 2.2549
 Frc consts  --      2.4616                 3.7315                 2.6746
 IR Inten    --      2.4689                14.7516               105.2006

                     40                     41                     42
                      A                      A                      A
 Frequencies --   1485.2257              1496.9819              1506.7352
 Red. masses --      1.3365                 3.7636                 2.4573
 Frc consts  --      1.7371                 4.9692                 3.2868
 IR Inten    --     35.0061               116.5874                56.3623

                     43                     44                     45
                      A                      A                      A
 Frequencies --   1566.8239              1647.6862              1842.8698
 Red. masses --      5.5809                 4.6047                10.7805
 Frc consts  --      8.0722                 7.3655                21.5714
 IR Inten    --     13.8261                70.9263               286.3240

                     46                     47                     48
                      A                      A                      A
 Frequencies --   3103.8429              3178.5998              3252.2186
 Red. masses --      1.0644                 1.1049                 1.0952
 Frc consts  --      6.0414                 6.5774                 6.8247
 IR Inten    --      4.6270                 0.6375                10.1534

                     49                     50                     51
                      A                      A                      A
 Frequencies --   3261.7968              3594.9131              3679.9261
 Red. masses --      1.0962                 1.0659                 1.0651
 Frc consts  --      6.8713                 8.1162                 8.4980
 IR Inten    --     10.7100               183.9829               167.3314

 - Thermochemistry -
 -------------------
 Temperature     0.001 Kelvin.  Pressure   1.00000 Atm.
 Atom     1 has atomic number  6 and mass  12.00000

 Molecular mass:   405.83557 amu.
 Principal axes and moments of inertia in atomic units:
                           1         2         3
     Eigenvalues --  5734.084379162.55603**********
           X            0.99774   0.06722   0.00175
           Y           -0.06721   0.99773  -0.00459
           Z           -0.00206   0.00446   0.99999
 This molecule is an asymmetric top.
 Rotational symmetry number  1.
 Warning -- assumption of classical behavior for rotation
           may cause significant error
 Rotational temperatures (Kelvin)      0.01511     0.00945     0.00598
 Rotational constants (GHZ):           0.31474     0.19697     0.12465
 Zero-point vibrational energy     336528.3 (Joules/Mol)
                                   80.43219 (Kcal/Mol)
 Vibrational temperatures:     34.31    62.01    85.80   101.58   141.10
          (Kelvin)            260.72   271.21   279.96   311.03   369.58
                              474.48   515.61   555.70   666.02   733.66
                              783.86   793.24   804.70   821.68   949.88
                              975.08  1071.06  1073.06  1198.41  1255.63
                             1285.11  1307.79  1353.28  1433.27  1623.39
                             1679.92  1705.83  1766.27  1790.69  1898.88
                             1906.34  1953.73  2001.63  2041.43  2136.91
                             2153.82  2167.86  2254.31  2370.65  2651.48
                             4465.74  4573.30  4679.22  4693.00  5172.28
                             5294.59

 Zero-point correction=                           0.128177 (Hartree/Particle)
 Thermal correction to Energy=                    0.128177
 Thermal correction to Enthalpy=                  0.128177
 Thermal correction to Gibbs Free Energy=         0.128177
 Sum of electronic and zero-point Energies=         -14390.205301
 Sum of electronic and thermal Energies=            -14390.205301
 Sum of electronic and thermal Enthalpies=          -14390.205301
 Sum of electronic and thermal Free Energies=       -14390.205301

                     E (Thermal)             CV                S
                      KCal/Mol        Cal/Mol-Kelvin    Cal/Mol-Kelvin
 Total                   80.432              5.962            -21.319
 Electronic               0.000              0.000              0.000
 Translational            0.000              2.981            -18.730
 Rotational               0.000              2.981             -2.589
 Vibrational             80.432              0.000              0.000

 Optimization completed.
    -- Stationary point found.
 Normal termination of Gaussian 16 at Mon Oct 14 13:43:41 2019.
