 Gaussian 16, Revision A.03,
 Gaussian 16:  ES64L-G16RevA.03 25-Dec-2016

 --------------------------------------------------------------
 #p opt freq b3lyp/6-31g(d) geom=connectivity temperature=0.001
 --------------------------------------------------------------

 ------------------
 methylbenzoic acid
 ------------------
 Symbolic Z-matrix:
 Charge =  0 Multiplicity = 1

 SCF Done:  E(RB3LYP) =  -460.139475509     A.U. after   15 cycles
 SCF Done:  E(RB3LYP) =  -460.140284325     A.U. after   12 cycles
 SCF Done:  E(RB3LYP) =  -460.140312851     A.U. after   10 cycles
 SCF Done:  E(RB3LYP) =  -460.140271605     A.U. after   11 cycles
 SCF Done:  E(RB3LYP) =  -460.140320872     A.U. after   11 cycles
 SCF Done:  E(RB3LYP) =  -460.140321946     A.U. after    8 cycles
 SCF Done:  E(RB3LYP) =  -460.140323114     A.U. after    8 cycles
 SCF Done:  E(RB3LYP) =  -460.140327344     A.U. after   10 cycles
 SCF Done:  E(RB3LYP) =  -460.140333219     A.U. after   10 cycles
 SCF Done:  E(RB3LYP) =  -460.140337174     A.U. after   10 cycles
 SCF Done:  E(RB3LYP) =  -460.140340203     A.U. after    9 cycles
 SCF Done:  E(RB3LYP) =  -460.140345387     A.U. after   10 cycles
 SCF Done:  E(RB3LYP) =  -460.140346116     A.U. after    9 cycles
 SCF Done:  E(RB3LYP) =  -460.140346303     A.U. after    8 cycles
 SCF Done:  E(RB3LYP) =  -460.140346516     A.U. after   10 cycles
 SCF Done:  E(RB3LYP) =  -460.140346575     A.U. after    9 cycles
 SCF Done:  E(RB3LYP) =  -460.140346579     A.U. after    6 cycles
 Optimization completed.
    -- Stationary point found.
 Normal termination of Gaussian 16 at Mon Oct 14 13:39:20 2019.

 --------------------------------------------------------------------
 #P Geom=AllCheck Guess=TCheck SCRF=Check GenChk RB3LYP/6-31G(d) Freq
 --------------------------------------------------------------------

 Structure from the checkpoint file:  "07.chk"
 ------------------
 methylbenzoic acid
 ------------------
 Charge =  0 Multiplicity = 1

                         Standard orientation:
 ---------------------------------------------------------------------
 Center     Atomic      Atomic             Coordinates (Angstroms)
 Number     Number       Type             X           Y           Z
 ---------------------------------------------------------------------
      1          6           0       -0.315058    1.479397    0.000042
      2          6           0        1.010959    1.910383    0.000050
      3          6           0        2.051754    0.982260    0.000017
      4          6           0        1.794997   -0.398105   -0.000018
      5          6           0        0.464504   -0.818960   -0.000024
      6          6           0       -0.588694    0.106474    0.000000
      7          6           0       -1.976596   -0.424578    0.000005
      8          8           0       -2.274573   -1.602936    0.000133
      9          8           0       -2.921873    0.552400   -0.000137
     10          6           0        2.931702   -1.394033   -0.000047
     11          1           0       -1.130338    2.193985    0.000065
     12          1           0        1.234259    2.973764    0.000084
     13          1           0        3.082071    1.332205    0.000016
     14          1           0        0.218890   -1.876643   -0.000050
     15          1           0       -3.777782    0.085583   -0.000083
     16          1           0        3.571735   -1.269489    0.882161
     17          1           0        3.571836   -1.269341   -0.882158
     18          1           0        2.559480   -2.422806   -0.000145
 ---------------------------------------------------------------------

 SCF Done:  E(RB3LYP) =  -460.140346579     A.U. after    1 cycles

 The electronic state is 1-A.
 Alpha  occ. eigenvalues --  -19.19402 -19.13476 -10.31897 -10.20535 -10.20524
 Alpha  occ. eigenvalues --  -10.19913 -10.19889 -10.19768 -10.19517 -10.18876
 Alpha  occ. eigenvalues --   -1.10174  -1.00956  -0.86532  -0.78346  -0.76113
 Alpha  occ. eigenvalues --   -0.69340  -0.65966  -0.59907  -0.58296  -0.51949
 Alpha  occ. eigenvalues --   -0.48892  -0.47202  -0.45905  -0.44484  -0.44074
 Alpha  occ. eigenvalues --   -0.42341  -0.41765  -0.39631  -0.38912  -0.35857
 Alpha  occ. eigenvalues --   -0.35607  -0.34608  -0.31617  -0.27462  -0.25818
 Alpha  occ. eigenvalues --   -0.24995
 Alpha virt. eigenvalues --   -0.04615  -0.00392   0.05653   0.07673   0.09974
 Alpha virt. eigenvalues --    0.11916   0.13982   0.15546   0.16026   0.18410
 Alpha virt. eigenvalues --    0.18967   0.19723   0.22841   0.25006   0.28151

 Mulliken charges:
               1
     1  C   -0.165120
     2  C   -0.134204
     3  C   -0.163088
     4  C    0.170642
     5  C   -0.215993
     6  C    0.074581
     7  C    0.537742
     8  O   -0.475802
     9  O   -0.584934
    10  C   -0.530916
    11  H    0.158754
    12  H    0.136323
    13  H    0.130191
    14  H    0.157775
    15  H    0.410899
    16  H    0.164988
    17  H    0.164987
    18  H    0.163175
 Sum of Mulliken charges =   0.00000

 Dipole moment (field-independent basis, Debye):
    X=              1.2479    Y=              1.4662    Z=             -0.0001  Tot=              1.9253
 Quadrupole moment (field-independent basis, Debye-Ang):
   XX=            -47.4623   YY=            -57.9500   ZZ=            -59.2330
   XY=             -3.4986   XZ=              0.0002   YZ=              0.0009

  Exact polarizability: 120.648   0.766  98.356  -0.000   0.000  37.271
 Approx polarizability: 178.423   6.070 171.575  -0.000  -0.000  55.986

                      1                      2                      3
                      A                      A                      A
 Frequencies --     14.3520                62.7016               154.3646
 Red. masses --      1.0344                 7.5828                 4.5515
 Frc consts  --      0.0001                 0.0176                 0.0639
 IR Inten    --      0.1784                 1.1780                 0.6510

                      4                      5                      6
                      A                      A                      A
 Frequencies --    183.7147               218.6975               334.2786
 Red. masses --      4.9046                 2.9699                 3.5025
 Frc consts  --      0.0975                 0.0837                 0.2306
 IR Inten    --      1.6781                 1.1687                 1.8524

                      7                      8                      9
                      A                      A                      A
 Frequencies --    389.1006               432.5844               488.9102
 Red. masses --      6.0657                 3.1617                 2.8757
 Frc consts  --      0.5411                 0.3486                 0.4050
 IR Inten    --      3.4043                 2.7319                 1.2373

                     10                     11                     12
                      A                      A                      A
 Frequencies --    492.5699               548.9786               619.0718
 Red. masses --      5.3091                 5.5042                 1.3312
 Frc consts  --      0.7589                 0.9774                 0.3006
 IR Inten    --      5.0478                 0.7878                89.3789

                     13                     14                     15
                      A                      A                      A
 Frequencies --    641.4870               702.8056               735.2639
 Red. masses --      4.7676                 2.5175                 5.0888
 Frc consts  --      1.1559                 0.7326                 1.6209
 IR Inten    --     51.3345                 1.1835                19.1361

                     16                     17                     18
                      A                      A                      A
 Frequencies --    758.4120               827.8318               903.1194
 Red. masses --      2.2900                 1.9253                 4.2132
 Frc consts  --      0.7761                 0.7774                 2.0247
 IR Inten    --     82.4615                 1.4884                 4.4413

                     19                     20                     21
                      A                      A                      A
 Frequencies --    923.8912               954.3240               988.3169
 Red. masses --      1.3085                 1.4117                 1.2998
 Frc consts  --      0.6581                 0.7575                 0.7481
 IR Inten    --      0.7010                 2.2384                 0.0134

                     22                     23                     24
                      A                      A                      A
 Frequencies --   1015.9252              1026.1857              1079.0939
 Red. masses --      3.3401                 1.8493                 1.5226
 Frc consts  --      2.0311                 1.1474                 1.0446
 IR Inten    --      4.8874                 7.0148                 4.6405

                     25                     26                     27
                      A                      A                      A
 Frequencies --   1128.3623              1133.5918              1192.1007
 Red. masses --      1.6685                 2.2536                 1.7954
 Frc consts  --      1.2516                 1.7062                 1.5033
 IR Inten    --      4.0830                57.0401               272.9144

                     28                     29                     30
                      A                      A                      A
 Frequencies --   1206.9873              1256.5042              1335.1127
 Red. masses --      1.2062                 2.4291                 1.5513
 Frc consts  --      1.0353                 2.2596                 1.6292
 IR Inten    --      8.7265                43.7320                 6.3348

                     31                     32                     33
                      A                      A                      A
 Frequencies --   1367.9623              1392.0553              1444.3134
 Red. masses --      4.0915                 2.5247                 1.2458
 Frc consts  --      4.5111                 2.8825                 1.5311
 IR Inten    --      5.1105               108.2631                 0.3979

                     34                     35                     36
                      A                      A                      A
 Frequencies --   1478.5161              1516.0043              1524.1992
 Red. masses --      2.6406                 1.0442                 1.4471
 Frc consts  --      3.4009                 1.4139                 1.9807
 IR Inten    --     39.7721                 6.0858                13.3136

                     37                     38                     39
                      A                      A                      A
 Frequencies --   1539.3159              1643.1409              1667.0432
 Red. masses --      1.7562                 5.4038                 5.7504
 Frc consts  --      2.4518                 8.5961                 9.4155
 IR Inten    --      3.0391                 5.5295                15.0030

                     40                     41                     42
                      A                      A                      A
 Frequencies --   1819.3067              3045.4632              3097.3311
 Red. masses --      9.7507                 1.0378                 1.1010
 Frc consts  --     19.0151                 5.6712                 6.2232
 IR Inten    --    288.3053                27.2006                19.2173

                     43                     44                     45
                      A                      A                      A
 Frequencies --   3131.0505              3176.8148              3199.8702
 Red. masses --      1.1007                 1.0879                 1.0926
 Frc consts  --      6.3577                 6.4690                 6.5913
 IR Inten    --     14.3704                 9.9516                20.7962

                     46                     47                     48
                      A                      A                      A
 Frequencies --   3213.2948              3233.8404              3698.9457
 Red. masses --      1.0904                 1.0929                 1.0641
 Frc consts  --      6.6336                 6.7339                 8.5784
 IR Inten    --      2.1236                 3.6321                71.5246

 - Thermochemistry -
 -------------------
 Temperature     0.001 Kelvin.  Pressure   1.00000 Atm.
 Atom     1 has atomic number  6 and mass  12.00000

 Molecular mass:   136.05243 amu.
 Principal axes and moments of inertia in atomic units:
                           1         2         3
     Eigenvalues --   688.138271925.255202602.19039
           X            0.99953  -0.03070  -0.00000
           Y            0.03070   0.99953   0.00000
           Z            0.00000  -0.00000   1.00000
 This molecule is an asymmetric top.
 Rotational symmetry number  1.
 Warning -- assumption of classical behavior for rotation
           may cause significant error
 Rotational temperatures (Kelvin)      0.12587     0.04499     0.03329
 Rotational constants (GHZ):           2.62264     0.93740     0.69355
 Zero-point vibrational energy     376447.5 (Joules/Mol)
                                   89.97311 (Kcal/Mol)
 Vibrational temperatures:     20.65    90.21   222.10   264.32   314.66
          (Kelvin)            480.95   559.83   622.39   703.43   708.70
                              789.86   890.71   922.96  1011.18  1057.88
                             1091.19  1191.07  1299.39  1329.27  1373.06
                             1421.97  1461.69  1476.45  1552.58  1623.46
                             1630.99  1715.17  1736.59  1807.83  1920.93
                             1968.19  2002.86  2078.04  2127.25  2181.19
                             2192.98  2214.73  2364.11  2398.50  2617.58
                             4381.74  4456.37  4504.88  4570.73  4603.90
                             4623.21  4652.78  5321.96

 Zero-point correction=                           0.143381 (Hartree/Particle)
 Thermal correction to Energy=                    0.143381
 Thermal correction to Enthalpy=                  0.143381
 Thermal correction to Gibbs Free Energy=         0.143381
 Sum of electronic and zero-point Energies=           -459.996965
 Sum of electronic and thermal Energies=              -459.996965
 Sum of electronic and thermal Enthalpies=            -459.996965
 Sum of electronic and thermal Free Energies=         -459.996965

                     E (Thermal)             CV                S
                      KCal/Mol        Cal/Mol-Kelvin    Cal/Mol-Kelvin
 Total                   89.973              5.962            -29.939
 Electronic               0.000              0.000              0.000
 Translational            0.000              2.981            -21.988
 Rotational               0.000              2.981             -7.951
 Vibrational             89.973              0.000              0.000

 Optimization completed.
    -- Stationary point found.
 Normal termination of Gaussian 16 at Mon Oct 14 13:39:43 2019.
