 Gaussian 16, Revision A.03,
 Gaussian 16:  ES64L-G16RevA.03 25-Dec-2016

 --------------------------------------------------------------
 #p opt freq b3lyp/6-31g(d) geom=connectivity temperature=0.001
 --------------------------------------------------------------

 -----------------------
 methylbenzoic acid plus
 -----------------------
 Symbolic Z-matrix:
 Charge =  1 Multiplicity = 1

 SCF Done:  E(RB3LYP) =  -460.454776301     A.U. after   15 cycles
 SCF Done:  E(RB3LYP) =  -460.466520945     A.U. after   13 cycles
 SCF Done:  E(RB3LYP) =  -460.467859354     A.U. after   12 cycles
 SCF Done:  E(RB3LYP) =  -460.468026140     A.U. after   11 cycles
 SCF Done:  E(RB3LYP) =  -460.468071646     A.U. after   10 cycles
 SCF Done:  E(RB3LYP) =  -460.468097243     A.U. after   10 cycles
 SCF Done:  E(RB3LYP) =  -460.468132873     A.U. after   10 cycles
 SCF Done:  E(RB3LYP) =  -460.468177391     A.U. after   11 cycles
 SCF Done:  E(RB3LYP) =  -460.468200970     A.U. after   10 cycles
 SCF Done:  E(RB3LYP) =  -460.468233390     A.U. after   10 cycles
 SCF Done:  E(RB3LYP) =  -460.468250528     A.U. after   10 cycles
 SCF Done:  E(RB3LYP) =  -460.468260621     A.U. after    9 cycles
 SCF Done:  E(RB3LYP) =  -460.468287295     A.U. after   10 cycles
 SCF Done:  E(RB3LYP) =  -460.468295666     A.U. after   10 cycles
 SCF Done:  E(RB3LYP) =  -460.468308480     A.U. after   10 cycles
 SCF Done:  E(RB3LYP) =  -460.468310057     A.U. after    9 cycles
 SCF Done:  E(RB3LYP) =  -460.468310220     A.U. after    7 cycles
 Optimization completed.
    -- Stationary point found.
 Normal termination of Gaussian 16 at Mon Oct 14 13:39:30 2019.

 --------------------------------------------------------------------
 #P Geom=AllCheck Guess=TCheck SCRF=Check GenChk RB3LYP/6-31G(d) Freq
 --------------------------------------------------------------------

 Structure from the checkpoint file:  "07_p.chk"
 -----------------------
 methylbenzoic acid plus
 -----------------------
 Charge =  1 Multiplicity = 1

                         Standard orientation:
 ---------------------------------------------------------------------
 Center     Atomic      Atomic             Coordinates (Angstroms)
 Number     Number       Type             X           Y           Z
 ---------------------------------------------------------------------
      1          6           0       -0.260503    1.526220   -0.000054
      2          6           0        1.067296    1.921371   -0.000066
      3          6           0        2.084531    0.960581   -0.000026
      4          6           0        1.813729   -0.423327    0.000032
      5          6           0        0.482443   -0.821749    0.000044
      6          6           0       -0.557704    0.142230    0.000002
      7          6           0       -1.916172   -0.285834    0.000001
      8          8           0       -2.178952   -1.567793   -0.000179
      9          8           0       -2.865657    0.614787    0.000175
     10          6           0        2.940217   -1.426099    0.000055
     11          1           0       -1.057956    2.260361   -0.000075
     12          1           0        1.318997    2.976699   -0.000110
     13          1           0        3.120346    1.291076   -0.000029
     14          1           0        0.235275   -1.877932    0.000102
     15          1           0       -3.778678    0.271383    0.000081
     16          1           0        3.577472   -1.298220    0.882365
     17          1           0        3.577396   -1.298311   -0.882326
     18          1           0        2.565262   -2.452789    0.000113
     19          1           0       -3.124261   -1.808589   -0.000016
 ---------------------------------------------------------------------

 SCF Done:  E(RB3LYP) =  -460.468310220     A.U. after    1 cycles

 The electronic state is 1-A.
 Alpha  occ. eigenvalues --  -19.42935 -19.42916 -10.56282 -10.38277 -10.36609
 Alpha  occ. eigenvalues --  -10.36277 -10.35757 -10.35581 -10.34800 -10.30928
 Alpha  occ. eigenvalues --   -1.35717  -1.27933  -1.03303  -0.96580  -0.92380
 Alpha  occ. eigenvalues --   -0.87725  -0.84789  -0.82262  -0.77814  -0.74501
 Alpha  occ. eigenvalues --   -0.70270  -0.67906  -0.65766  -0.63958  -0.62013
 Alpha  occ. eigenvalues --   -0.59604  -0.57923  -0.56864  -0.56106  -0.55382
 Alpha  occ. eigenvalues --   -0.52447  -0.51228  -0.50275  -0.49545  -0.42496
 Alpha  occ. eigenvalues --   -0.40367
 Alpha virt. eigenvalues --   -0.25712  -0.15809  -0.15458  -0.12868  -0.09789
 Alpha virt. eigenvalues --   -0.03752  -0.00300   0.00063   0.00828   0.02303
 Alpha virt. eigenvalues --    0.03562   0.05082   0.06140   0.07392   0.08256

 Mulliken charges:
               1
     1  C   -0.128743
     2  C   -0.126762
     3  C   -0.131086
     4  C    0.166600
     5  C   -0.182635
     6  C    0.072758
     7  C    0.581060
     8  O   -0.501770
     9  O   -0.502771
    10  C   -0.536604
    11  H    0.200644
    12  H    0.196263
    13  H    0.193396
    14  H    0.191390
    15  H    0.463036
    16  H    0.199935
    17  H    0.199936
    18  H    0.182399
    19  H    0.462957
 Sum of Mulliken charges =   1.00000

 Dipole moment (field-independent basis, Debye):
    X=             -5.9053    Y=             -1.0774    Z=              0.0001  Tot=              6.0028
 Quadrupole moment (field-independent basis, Debye-Ang):
   XX=             -7.1999   YY=            -43.6333   ZZ=            -57.8945
   XY=              7.7762   XZ=             -0.0003   YZ=             -0.0011

  Exact polarizability: 138.801   5.731  97.366  -0.000  -0.001  36.325
 Approx polarizability: 224.877  17.619 166.369  -0.001  -0.001  54.630

                      1                      2                      3
                      A                      A                      A
 Frequencies --     64.0321                67.2325               144.6771
 Red. masses --      2.5664                 1.4343                 3.9777
 Frc consts  --      0.0062                 0.0038                 0.0491
 IR Inten    --      0.4425                 0.3190                12.1937

                      4                      5                      6
                      A                      A                      A
 Frequencies --    187.9941               211.3914               332.8040
 Red. masses --      4.2728                 2.7295                 1.0947
 Frc consts  --      0.0890                 0.0719                 0.0714
 IR Inten    --      3.7029                 0.5992                 0.5331

                      7                      8                      9
                      A                      A                      A
 Frequencies --    342.3963               395.7480               415.7043
 Red. masses --      3.2914                 6.1109                 2.5673
 Frc consts  --      0.2273                 0.5639                 0.2614
 IR Inten    --      1.6859                 0.1139                16.6124

                     10                     11                     12
                      A                      A                      A
 Frequencies --    478.1236               494.1245               536.5066
 Red. masses --      2.3526                 5.1198                 1.4189
 Frc consts  --      0.3169                 0.7365                 0.2406
 IR Inten    --     27.0875                 6.3828               262.3347

                     13                     14                     15
                      A                      A                      A
 Frequencies --    544.2224               631.9581               664.7530
 Red. masses --      5.4590                 4.2231                 2.5498
 Frc consts  --      0.9526                 0.9937                 0.6639
 IR Inten    --      3.4779                33.9773                 2.0843

                     16                     17                     18
                      A                      A                      A
 Frequencies --    733.4587               740.8114               824.1659
 Red. masses --      5.0450                 3.4113                 1.6429
 Frc consts  --      1.5990                 1.1030                 0.6575
 IR Inten    --      2.1566                24.2011                15.2760

                     19                     20                     21
                      A                      A                      A
 Frequencies --    901.2438               918.0204               977.4322
 Red. masses --      1.4025                 3.8124                 1.3316
 Frc consts  --      0.6712                 1.8930                 0.7495
 IR Inten    --      3.1986                 6.4681                 1.0051

                     22                     23                     24
                      A                      A                      A
 Frequencies --   1009.8555              1020.9794              1033.5485
 Red. masses --      5.3188                 1.3554                 1.5680
 Frc consts  --      3.1958                 0.8325                 0.9869
 IR Inten    --     15.5342                 0.4986                10.8758

                     25                     26                     27
                      A                      A                      A
 Frequencies --   1082.0379              1132.7203              1140.7796
 Red. masses --      1.5528                 2.4662                 1.6409
 Frc consts  --      1.0712                 1.8643                 1.2582
 IR Inten    --      4.9431               161.8208                68.3420

                     28                     29                     30
                      A                      A                      A
 Frequencies --   1144.4716              1199.2874              1219.1489
 Red. masses --      1.1455                 1.5148                 1.2207
 Frc consts  --      0.8840                 1.2837                 1.0690
 IR Inten    --    155.1009               303.3292                 0.1736

                     31                     32                     33
                      A                      A                      A
 Frequencies --   1265.2180              1352.3481              1398.2055
 Red. masses --      2.7101                 1.4165                 4.7820
 Frc consts  --      2.5561                 1.5264                 5.5081
 IR Inten    --    120.4383                 1.6707                32.2580

                     34                     35                     36
                      A                      A                      A
 Frequencies --   1444.1643              1451.8291              1509.2407
 Red. masses --      1.9766                 1.5405                 2.1055
 Frc consts  --      2.4289                 1.9131                 2.8257
 IR Inten    --      0.1368                 5.1681                26.4837

                     37                     38                     39
                      A                      A                      A
 Frequencies --   1509.6243              1524.8957              1551.0652
 Red. masses --      1.0419                 1.2323                 5.3372
 Frc consts  --      1.3990                 1.6883                 7.5652
 IR Inten    --     10.4408                45.3681               297.0078

                     40                     41                     42
                      A                      A                      A
 Frequencies --   1612.5482              1626.0547              1653.7090
 Red. masses --      3.6886                 4.6189                 5.1810
 Frc consts  --      5.6512                 7.1955                 8.3480
 IR Inten    --    437.3528               111.4656                72.6558

                     43                     44                     45
                      A                      A                      A
 Frequencies --   3061.5366              3120.5010              3148.8126
 Red. masses --      1.0374                 1.1015                 1.1024
 Frc consts  --      5.7292                 6.3195                 6.4397
 IR Inten    --      3.9916                 3.7280                 6.3813

                     46                     47                     48
                      A                      A                      A
 Frequencies --   3203.5425              3227.4842              3228.7002
 Red. masses --      1.0905                 1.0917                 1.0915
 Frc consts  --      6.5937                 6.7001                 6.7036
 IR Inten    --      0.8105                 0.4423                 0.5109

                     49                     50                     51
                      A                      A                      A
 Frequencies --   3243.7304              3687.7237              3700.3510
 Red. masses --      1.0953                 1.0684                 1.0660
 Frc consts  --      6.7903                 8.5607                 8.5998
 IR Inten    --      0.8045                29.7217               513.8884

 - Thermochemistry -
 -------------------
 Temperature     0.001 Kelvin.  Pressure   1.00000 Atm.
 Atom     1 has atomic number  6 and mass  12.00000

 Molecular mass:   137.06025 amu.
 Principal axes and moments of inertia in atomic units:
                           1         2         3
     Eigenvalues --   707.617631923.016682619.42651
           X            0.99985  -0.01725   0.00000
           Y            0.01725   0.99985  -0.00000
           Z           -0.00000   0.00000   1.00000
 This molecule is an asymmetric top.
 Rotational symmetry number  1.
 Warning -- assumption of classical behavior for rotation
           may cause significant error
 Rotational temperatures (Kelvin)      0.12240     0.04504     0.03307
 Rotational constants (GHZ):           2.55045     0.93849     0.68898
 Zero-point vibrational energy     407393.7 (Joules/Mol)
                                   97.36944 (Kcal/Mol)
 Vibrational temperatures:     92.13    96.73   208.16   270.48   304.15
          (Kelvin)            478.83   492.63   569.39   598.11   687.91
                              710.94   771.91   783.01   909.25   956.43
                             1055.28  1065.86  1185.79  1296.69  1320.83
                             1406.31  1452.96  1468.96  1487.05  1556.81
                             1629.73  1641.33  1646.64  1725.51  1754.08
                             1820.37  1945.73  2011.71  2077.83  2088.86
                             2171.46  2172.01  2193.98  2231.64  2320.10
                             2339.53  2379.32  4404.87  4489.70  4530.44
                             4609.18  4643.63  4645.38  4667.00  5305.81
                             5323.98

 Zero-point correction=                           0.155168 (Hartree/Particle)
 Thermal correction to Energy=                    0.155168
 Thermal correction to Enthalpy=                  0.155168
 Thermal correction to Gibbs Free Energy=         0.155168
 Sum of electronic and zero-point Energies=           -460.313142
 Sum of electronic and thermal Energies=              -460.313142
 Sum of electronic and thermal Enthalpies=            -460.313142
 Sum of electronic and thermal Free Energies=         -460.313142

                     E (Thermal)             CV                S
                      KCal/Mol        Cal/Mol-Kelvin    Cal/Mol-Kelvin
 Total                   97.369              5.962            -29.883
 Electronic               0.000              0.000              0.000
 Translational            0.000              2.981            -21.966
 Rotational               0.000              2.981             -7.918
 Vibrational             97.369              0.000              0.000

 Optimization completed.
    -- Stationary point found.
 Normal termination of Gaussian 16 at Mon Oct 14 13:39:55 2019.
