 Gaussian 16, Revision A.03,
 Gaussian 16:  ES64L-G16RevA.03 25-Dec-2016

 --------------------------------------------------------------
 #p opt freq b3lyp/6-31g(d) geom=connectivity temperature=0.001
 --------------------------------------------------------------

 -----------------------------
 2_methyl_pyridine_n_oxide.sdf
 -----------------------------
 Symbolic Z-matrix:
 Charge =  0 Multiplicity = 1

 SCF Done:  E(RB3LYP) =  -362.761834316     A.U. after   15 cycles
 SCF Done:  E(RB3LYP) =  -362.769730551     A.U. after   13 cycles
 SCF Done:  E(RB3LYP) =  -362.770542926     A.U. after   12 cycles
 SCF Done:  E(RB3LYP) =  -362.770725101     A.U. after   11 cycles
 SCF Done:  E(RB3LYP) =  -362.770816136     A.U. after   12 cycles
 SCF Done:  E(RB3LYP) =  -362.770858781     A.U. after   10 cycles
 SCF Done:  E(RB3LYP) =  -362.770888133     A.U. after   11 cycles
 SCF Done:  E(RB3LYP) =  -362.770890465     A.U. after    9 cycles
 Optimization completed.
    -- Stationary point found.
 Normal termination of Gaussian 16 at Mon Oct 14 13:38:54 2019.

 --------------------------------------------------------------------
 #P Geom=AllCheck Guess=TCheck SCRF=Check GenChk RB3LYP/6-31G(d) Freq
 --------------------------------------------------------------------

 Structure from the checkpoint file:  "08.chk"
 -----------------------------
 2_methyl_pyridine_n_oxide.sdf
 -----------------------------
 Charge =  0 Multiplicity = 1

                         Standard orientation:
 ---------------------------------------------------------------------
 Center     Atomic      Atomic             Coordinates (Angstroms)
 Number     Number       Type             X           Y           Z
 ---------------------------------------------------------------------
      1          6           0        1.960524    0.459777   -0.000035
      2          6           0        0.850262    1.282655    0.000031
      3          7           0       -0.422885    0.772291    0.000039
      4          6           0       -0.608431   -0.598824   -0.000027
      5          6           0        0.501742   -1.434602   -0.000007
      6          6           0        1.800352   -0.926539    0.000007
      7          6           0       -2.032406   -1.048387    0.000020
      8          8           0       -1.433802    1.556582   -0.000026
      9          1           0        2.945104    0.916646   -0.000065
     10          1           0        0.878545    2.364056    0.000026
     11          1           0        0.327058   -2.506375    0.000023
     12          1           0        2.657835   -1.590787    0.000057
     13          1           0       -2.089282   -2.139942    0.000518
     14          1           0       -2.560561   -0.652890    0.874948
     15          1           0       -2.560344   -0.653874   -0.875513
 ---------------------------------------------------------------------

 SCF Done:  E(RB3LYP) =  -362.770890465     A.U. after    1 cycles

 The electronic state is 1-A.
 Alpha  occ. eigenvalues --  -19.11120 -14.47324 -10.24111 -10.23240 -10.21305
 Alpha  occ. eigenvalues --  -10.21174 -10.20768 -10.18983  -1.09815  -0.89413
 Alpha  occ. eigenvalues --   -0.80441  -0.78810  -0.71186  -0.65772  -0.61739
 Alpha  occ. eigenvalues --   -0.52472  -0.51257  -0.47817  -0.47204  -0.44683
 Alpha  occ. eigenvalues --   -0.43323  -0.40673  -0.40307  -0.38116  -0.37428
 Alpha  occ. eigenvalues --   -0.33982  -0.27028  -0.24035  -0.20893
 Alpha virt. eigenvalues --   -0.03285  -0.01863   0.08254   0.11521   0.12302
 Alpha virt. eigenvalues --    0.13315   0.16022   0.16408   0.17744   0.18467
 Alpha virt. eigenvalues --    0.20669   0.22743   0.27663   0.28942   0.31023

 Mulliken charges:
               1
     1  C   -0.173978
     2  C    0.070446
     3  N   -0.052873
     4  C    0.348059
     5  C   -0.211393
     6  C   -0.104042
     7  C   -0.494407
     8  O   -0.524623
     9  H    0.152127
    10  H    0.178170
    11  H    0.146448
    12  H    0.144382
    13  H    0.149041
    14  H    0.186337
    15  H    0.186305
 Sum of Mulliken charges =  -0.00000

 Dipole moment (field-independent basis, Debye):
    X=              2.5513    Y=             -2.4316    Z=              0.0000  Tot=              3.5245
 Quadrupole moment (field-independent basis, Debye-Ang):
   XX=            -44.0783   YY=            -45.2431   ZZ=            -48.1748
   XY=              5.8728   XZ=              0.0000   YZ=              0.0002

  Exact polarizability:  97.526  -4.422  83.666   0.001   0.000  31.552
 Approx polarizability: 175.355 -31.224 153.355   0.002   0.000  47.017

                      1                      2                      3
                      A                      A                      A
 Frequencies --    167.8008               188.9427               264.1602
 Red. masses --      2.4660                 1.2231                 3.7121
 Frc consts  --      0.0409                 0.0257                 0.1526
 IR Inten    --      3.0567                 1.9860                 0.1066

                      4                      5                      6
                      A                      A                      A
 Frequencies --    330.4249               457.5162               478.8020
 Red. masses --      2.9819                 3.0065                 5.4926
 Frc consts  --      0.1918                 0.3708                 0.7419
 IR Inten    --      6.3012                 2.1724                 7.6359

                      7                      8                      9
                      A                      A                      A
 Frequencies --    551.8964               565.4959               607.4971
 Red. masses --      3.6433                 6.0293                 6.6224
 Frc consts  --      0.6538                 1.1360                 1.4400
 IR Inten    --      0.0287                 4.2741                 0.6000

                     10                     11                     12
                      A                      A                      A
 Frequencies --    710.3860               771.1078               785.1843
 Red. masses --      2.7137                 1.4710                 4.6388
 Frc consts  --      0.8069                 0.5153                 1.6850
 IR Inten    --      4.6061                53.5164                 0.6746

                     13                     14                     15
                      A                      A                      A
 Frequencies --    860.2233               873.0749               935.0726
 Red. masses --      1.3513                 4.6121                 1.3310
 Frc consts  --      0.5891                 2.0713                 0.6857
 IR Inten    --      2.5912                15.1702                 1.8841

                     16                     17                     18
                      A                      A                      A
 Frequencies --    967.1006              1013.9846              1075.9211
 Red. masses --      1.2418                 1.6498                 1.4894
 Frc consts  --      0.6843                 0.9994                 1.0158
 IR Inten    --      0.1635                 8.3005                 2.7929

                     19                     20                     21
                      A                      A                      A
 Frequencies --   1078.6503              1139.7161              1181.9750
 Red. masses --      2.0599                 1.6205                 1.0810
 Frc consts  --      1.4121                 1.2402                 0.8898
 IR Inten    --      5.9223                 4.0443                 1.3637

                     22                     23                     24
                      A                      A                      A
 Frequencies --   1242.2753              1268.7954              1328.7467
 Red. masses --      2.7613                 5.0944                 1.5097
 Frc consts  --      2.5108                 4.8320                 1.5704
 IR Inten    --     17.9081                 9.5277                 3.8681

                     25                     26                     27
                      A                      A                      A
 Frequencies --   1362.1512              1443.4076              1471.5288
 Red. masses --      4.8052                 1.3206                 1.7312
 Frc consts  --      5.2530                 1.6210                 2.2087
 IR Inten    --    107.3399                 8.0826                35.6900

                     28                     29                     30
                      A                      A                      A
 Frequencies --   1490.7699              1518.4697              1545.8652
 Red. masses --      1.0448                 1.3302                 2.6240
 Frc consts  --      1.3680                 1.8071                 3.6946
 IR Inten    --      6.7614                55.6819                18.2299

                     31                     32                     33
                      A                      A                      A
 Frequencies --   1598.8401              1682.2759              3058.2829
 Red. masses --      6.1348                 5.5612                 1.0356
 Frc consts  --      9.2398                 9.2728                 5.7071
 IR Inten    --      0.8304                11.6390                12.1237

                     34                     35                     36
                      A                      A                      A
 Frequencies --   3112.3694              3148.5018              3203.2264
 Red. masses --      1.0998                 1.1038                 1.0878
 Frc consts  --      6.2771                 6.4467                 6.5759
 IR Inten    --      7.0854                11.5816                 2.9967

                     37                     38                     39
                      A                      A                      A
 Frequencies --   3212.3439              3228.0785              3268.2853
 Red. masses --      1.0904                 1.0966                 1.0942
 Frc consts  --      6.6296                 6.7325                 6.8862
 IR Inten    --      9.2048                 9.0295                 0.1020

 - Thermochemistry -
 -------------------
 Temperature     0.001 Kelvin.  Pressure   1.00000 Atm.
 Atom     1 has atomic number  6 and mass  12.00000

 Molecular mass:   109.05276 amu.
 Principal axes and moments of inertia in atomic units:
                           1         2         3
     Eigenvalues --   512.01995 795.378531296.37071
           X            0.99549   0.09485   0.00000
           Y           -0.09485   0.99549  -0.00000
           Z           -0.00000   0.00000   1.00000
 This molecule is an asymmetric top.
 Rotational symmetry number  1.
 Warning -- assumption of classical behavior for rotation
           may cause significant error
 Rotational temperatures (Kelvin)      0.16916     0.10890     0.06681
 Rotational constants (GHZ):           3.52475     2.26903     1.39215
 Zero-point vibrational energy     318141.7 (Joules/Mol)
                                   76.03770 (Kcal/Mol)
 Vibrational temperatures:    241.43   271.85   380.07   475.41   658.26
          (Kelvin)            688.89   794.06   813.62   874.05  1022.09
                             1109.45  1129.71  1237.67  1256.16  1345.36
                             1391.44  1458.90  1548.01  1551.94  1639.80
                             1700.60  1787.36  1825.51  1911.77  1959.83
                             2076.74  2117.20  2144.89  2184.74  2224.16
                             2300.37  2420.42  4400.19  4478.01  4529.99
                             4608.73  4621.85  4644.48  4702.33

 Zero-point correction=                           0.121174 (Hartree/Particle)
 Thermal correction to Energy=                    0.121174
 Thermal correction to Enthalpy=                  0.121174
 Thermal correction to Gibbs Free Energy=         0.121174
 Sum of electronic and zero-point Energies=           -362.649717
 Sum of electronic and thermal Energies=              -362.649717
 Sum of electronic and thermal Enthalpies=            -362.649717
 Sum of electronic and thermal Free Energies=         -362.649717

                     E (Thermal)             CV                S
                      KCal/Mol        Cal/Mol-Kelvin    Cal/Mol-Kelvin
 Total                   76.038              5.962            -32.462
 Electronic               0.000              0.000              0.000
 Translational            0.000              2.981            -22.647
 Rotational               0.000              2.981             -9.815
 Vibrational             76.038              0.000              0.000

 Optimization completed.
    -- Stationary point found.
 Normal termination of Gaussian 16 at Mon Oct 14 13:39:10 2019.
