 Gaussian 16, Revision A.03,
 Gaussian 16:  ES64L-G16RevA.03 25-Dec-2016

 --------------------------------------------------------------
 #p opt freq b3lyp/6-31g(d) geom=connectivity temperature=0.001
 --------------------------------------------------------------

 -----------------------------
 2_methyl_pyridine_n_oxide.sdf
 -----------------------------
 Symbolic Z-matrix:
 Charge =  1 Multiplicity = 1

 SCF Done:  E(RB3LYP) =  -363.125767163     A.U. after   14 cycles
 SCF Done:  E(RB3LYP) =  -363.135263165     A.U. after   12 cycles
 SCF Done:  E(RB3LYP) =  -363.136145774     A.U. after   11 cycles
 SCF Done:  E(RB3LYP) =  -363.136429509     A.U. after   11 cycles
 SCF Done:  E(RB3LYP) =  -363.136635036     A.U. after   11 cycles
 SCF Done:  E(RB3LYP) =  -363.136692009     A.U. after   11 cycles
 SCF Done:  E(RB3LYP) =  -363.136918416     A.U. after   11 cycles
 SCF Done:  E(RB3LYP) =  -363.136696505     A.U. after   12 cycles
 SCF Done:  E(RB3LYP) =  -363.138228157     A.U. after   14 cycles
 SCF Done:  E(RB3LYP) =  -363.138800971     A.U. after   12 cycles
 SCF Done:  E(RB3LYP) =  -363.139168166     A.U. after   12 cycles
 SCF Done:  E(RB3LYP) =  -363.139171590     A.U. after   11 cycles
 SCF Done:  E(RB3LYP) =  -363.139239948     A.U. after   11 cycles
 SCF Done:  E(RB3LYP) =  -363.139271835     A.U. after   11 cycles
 SCF Done:  E(RB3LYP) =  -363.139291247     A.U. after   11 cycles
 SCF Done:  E(RB3LYP) =  -363.139292216     A.U. after    8 cycles
 SCF Done:  E(RB3LYP) =  -363.139292382     A.U. after    7 cycles
 Optimization completed.
    -- Stationary point found.
 Normal termination of Gaussian 16 at Mon Oct 14 13:39:33 2019.

 --------------------------------------------------------------------
 #P Geom=AllCheck Guess=TCheck SCRF=Check GenChk RB3LYP/6-31G(d) Freq
 --------------------------------------------------------------------

 Structure from the checkpoint file:  "08_p.chk"
 -----------------------------
 2_methyl_pyridine_n_oxide.sdf
 -----------------------------
 Charge =  1 Multiplicity = 1

                         Standard orientation:
 ---------------------------------------------------------------------
 Center     Atomic      Atomic             Coordinates (Angstroms)
 Number     Number       Type             X           Y           Z
 ---------------------------------------------------------------------
      1          6           0       -1.979047   -0.529026   -0.003756
      2          6           0       -0.834505   -1.299630   -0.010057
      3          7           0        0.374355   -0.688517    0.012622
      4          6           0        0.567729    0.659451    0.003621
      5          6           0       -0.584953    1.446503    0.012570
      6          6           0       -1.850714    0.864873    0.010958
      7          6           0        1.965063    1.191718   -0.017767
      8          8           0        1.482389   -1.514505   -0.097592
      9          1           0       -2.947517   -1.015578   -0.017274
     10          1           0       -0.808225   -2.381922   -0.040018
     11          1           0       -0.467877    2.524401    0.012261
     12          1           0       -2.735355    1.493797    0.012389
     13          1           0        1.942942    2.279711   -0.095544
     14          1           0        2.508207    0.925964    0.897153
     15          1           0        2.525562    0.782048   -0.864153
     16          1           0        1.801232   -1.676092    0.814162
 ---------------------------------------------------------------------

 SCF Done:  E(RB3LYP) =  -363.139292382     A.U. after    1 cycles

 The electronic state is 1-A.
 Alpha  occ. eigenvalues --  -19.40767 -14.67423 -10.45652 -10.44545 -10.40688
 Alpha  occ. eigenvalues --  -10.39882 -10.39760 -10.36406  -1.32690  -1.14123
 Alpha  occ. eigenvalues --   -1.00530  -1.00159  -0.89809  -0.85809  -0.83159
 Alpha  occ. eigenvalues --   -0.77260  -0.71190  -0.70014  -0.67672  -0.65499
 Alpha  occ. eigenvalues --   -0.62099  -0.60149  -0.58180  -0.57115  -0.56931
 Alpha  occ. eigenvalues --   -0.55720  -0.52272  -0.49018  -0.46029
 Alpha virt. eigenvalues --   -0.24708  -0.20926  -0.13734  -0.09211  -0.06554
 Alpha virt. eigenvalues --   -0.04814  -0.03569  -0.02117  -0.00114   0.00630
 Alpha virt. eigenvalues --    0.01459   0.02571   0.04625   0.09230   0.10495

 Mulliken charges:
               1
     1  C   -0.176075
     2  C    0.137689
     3  N   -0.221202
     4  C    0.417914
     5  C   -0.208952
     6  C   -0.047474
     7  C   -0.521146
     8  O   -0.450203
     9  H    0.231503
    10  H    0.257885
    11  H    0.221072
    12  H    0.228990
    13  H    0.218438
    14  H    0.210378
    15  H    0.238464
    16  H    0.462720
 Sum of Mulliken charges =   1.00000

 Dipole moment (field-independent basis, Debye):
    X=             -0.6306    Y=             -0.0659    Z=              1.5559  Tot=              1.6801
 Quadrupole moment (field-independent basis, Debye-Ang):
   XX=            -26.4458   YY=            -30.7168   ZZ=            -44.7476
   XY=              0.4721   XZ=              3.2216   YZ=             -2.9913

  Exact polarizability:  89.802   0.982  77.452   1.287  -0.490  32.591
 Approx polarizability: 140.847  -2.133 128.528   1.195   0.157  48.820

                      1                      2                      3
                      A                      A                      A
 Frequencies --    131.9041               171.1342               209.3943
 Red. masses --      1.0514                 3.3166                 1.3092
 Frc consts  --      0.0108                 0.0572                 0.0338
 IR Inten    --     11.3114                 2.0442                86.2554

                      4                      5                      6
                      A                      A                      A
 Frequencies --    261.8930               324.6400               448.3208
 Red. masses --      2.4365                 3.1161                 3.3482
 Frc consts  --      0.0985                 0.1935                 0.3965
 IR Inten    --     27.3523                 0.9243                10.3579

                      7                      8                      9
                      A                      A                      A
 Frequencies --    452.9793               503.0813               544.5585
 Red. masses --      4.0083                 3.1251                 5.4933
 Frc consts  --      0.4846                 0.4660                 0.9598
 IR Inten    --      0.8166                 2.9120                 0.0419

                     10                     11                     12
                      A                      A                      A
 Frequencies --    600.1293               691.9686               778.2674
 Red. masses --      6.1784                 3.2559                 5.0174
 Frc consts  --      1.3110                 0.9185                 1.7905
 IR Inten    --      0.5972                 7.9554                 4.9809

                     13                     14                     15
                      A                      A                      A
 Frequencies --    788.5586               845.9746               896.5883
 Red. masses --      1.2451                 5.0023                 1.2549
 Frc consts  --      0.4562                 2.1093                 0.5944
 IR Inten    --     53.1914                 2.2363                 0.1337

                     16                     17                     18
                      A                      A                      A
 Frequencies --    981.9979              1022.9853              1039.1213
 Red. masses --      1.3256                 1.5788                 1.3522
 Frc consts  --      0.7532                 0.9734                 0.8603
 IR Inten    --      0.3489                 2.4032                 0.3682

                     19                     20                     21
                      A                      A                      A
 Frequencies --   1072.5601              1080.6351              1142.9914
 Red. masses --      1.5458                 2.1084                 1.9190
 Frc consts  --      1.0477                 1.4507                 1.4771
 IR Inten    --      6.1046                 1.7374                 8.1783

                     22                     23                     24
                      A                      A                      A
 Frequencies --   1203.0390              1205.7972              1258.9634
 Red. masses --      1.3152                 2.0921                 2.7360
 Frc consts  --      1.1215                 1.7922                 2.5550
 IR Inten    --      8.4736                16.4422                 0.0549

                     25                     26                     27
                      A                      A                      A
 Frequencies --   1319.3309              1331.2619              1416.7599
 Red. masses --      7.8137                 1.4518                 1.2145
 Frc consts  --      8.0133                 1.5159                 1.4363
 IR Inten    --     25.5821                 4.1763                58.3965

                     28                     29                     30
                      A                      A                      A
 Frequencies --   1445.4801              1480.6084              1497.6386
 Red. masses --      1.2143                 1.4632                 1.0485
 Frc consts  --      1.4949                 1.8899                 1.3856
 IR Inten    --     22.9944                 8.4601                17.6804

                     31                     32                     33
                      A                      A                      A
 Frequencies --   1520.3780              1541.6132              1622.1906
 Red. masses --      1.3922                 2.5332                 6.1668
 Frc consts  --      1.8961                 3.5471                 9.5612
 IR Inten    --     18.4040                54.6146                11.5342

                     34                     35                     36
                      A                      A                      A
 Frequencies --   1669.0310              3066.0641              3129.2411
 Red. masses --      5.5234                 1.0410                 1.0978
 Frc consts  --      9.0654                 5.7658                 6.3337
 IR Inten    --     37.3264                 2.0093                 0.9672

                     37                     38                     39
                      A                      A                      A
 Frequencies --   3178.3667              3231.0347              3243.3602
 Red. masses --      1.1024                 1.0909                 1.0947
 Frc consts  --      6.5611                 6.7099                 6.7845
 IR Inten    --      1.2622                 0.0230                 3.0443

                     40                     41                     42
                      A                      A                      A
 Frequencies --   3249.9281              3269.4495              3637.9129
 Red. masses --      1.0948                 1.0977                 1.0683
 Frc consts  --      6.8130                 6.9135                 8.3297
 IR Inten    --      6.3914                16.7906               112.5904

 - Thermochemistry -
 -------------------
 Temperature     0.001 Kelvin.  Pressure   1.00000 Atm.
 Atom     1 has atomic number  6 and mass  12.00000

 Molecular mass:   110.06059 amu.
 Principal axes and moments of inertia in atomic units:
                           1         2         3
     Eigenvalues --   536.44545 812.896881332.32093
           X            0.99756   0.06948   0.00606
           Y           -0.06943   0.99755  -0.00825
           Z           -0.00662   0.00781   0.99995
 This molecule is an asymmetric top.
 Rotational symmetry number  1.
 Warning -- assumption of classical behavior for rotation
           may cause significant error
 Rotational temperatures (Kelvin)      0.16146     0.10655     0.06501
 Rotational constants (GHZ):           3.36426     2.22014     1.35458
 Zero-point vibrational energy     349950.4 (Joules/Mol)
                                   83.64015 (Kcal/Mol)
 Vibrational temperatures:    189.78   246.22   301.27   376.81   467.08
          (Kelvin)            645.03   651.74   723.82   783.50   863.45
                              995.59  1119.75  1134.56  1217.17  1289.99
                             1412.88  1471.85  1495.06  1543.17  1554.79
                             1644.51  1730.90  1734.87  1811.37  1898.22
                             1915.39  2038.40  2079.72  2130.27  2154.77
                             2187.48  2218.04  2333.97  2401.36  4411.38
                             4502.28  4572.96  4648.74  4666.47  4675.92
                             4704.01  5234.15

 Zero-point correction=                           0.133289 (Hartree/Particle)
 Thermal correction to Energy=                    0.133289
 Thermal correction to Enthalpy=                  0.133289
 Thermal correction to Gibbs Free Energy=         0.133289
 Sum of electronic and zero-point Energies=           -363.006003
 Sum of electronic and thermal Energies=              -363.006003
 Sum of electronic and thermal Enthalpies=            -363.006003
 Sum of electronic and thermal Free Energies=         -363.006003

                     E (Thermal)             CV                S
                      KCal/Mol        Cal/Mol-Kelvin    Cal/Mol-Kelvin
 Total                   83.640              5.962            -32.340
 Electronic               0.000              0.000              0.000
 Translational            0.000              2.981            -22.620
 Rotational               0.000              2.981             -9.720
 Vibrational             83.640              0.000              0.000

 Optimization completed.
    -- Stationary point found.
 Normal termination of Gaussian 16 at Mon Oct 14 13:39:50 2019.
