 Gaussian 16, Revision A.03,
 Gaussian 16:  ES64L-G16RevA.03 25-Dec-2016

 --------------------------------------------------------------
 #p opt freq b3lyp/6-31g(d) geom=connectivity temperature=0.001
 --------------------------------------------------------------

 ------------------
 methylbenzophenone
 ------------------
 Symbolic Z-matrix:
 Charge =  0 Multiplicity = 1

 SCF Done:  E(RB3LYP) =  -615.925183020     A.U. after   15 cycles
 SCF Done:  E(RB3LYP) =  -615.946971553     A.U. after   13 cycles
 SCF Done:  E(RB3LYP) =  -615.949824713     A.U. after   13 cycles
 SCF Done:  E(RB3LYP) =  -615.950585782     A.U. after   13 cycles
 SCF Done:  E(RB3LYP) =  -615.950842957     A.U. after   13 cycles
 SCF Done:  E(RB3LYP) =  -615.950883415     A.U. after   11 cycles
 SCF Done:  E(RB3LYP) =  -615.950943394     A.U. after   11 cycles
 SCF Done:  E(RB3LYP) =  -615.950954924     A.U. after   11 cycles
 SCF Done:  E(RB3LYP) =  -615.950957292     A.U. after   10 cycles
 SCF Done:  E(RB3LYP) =  -615.950957719     A.U. after    8 cycles
 SCF Done:  E(RB3LYP) =  -615.950958769     A.U. after    8 cycles
 SCF Done:  E(RB3LYP) =  -615.950959903     A.U. after    9 cycles
 SCF Done:  E(RB3LYP) =  -615.950961832     A.U. after    9 cycles
 SCF Done:  E(RB3LYP) =  -615.950964254     A.U. after   10 cycles
 SCF Done:  E(RB3LYP) =  -615.950966192     A.U. after    9 cycles
 SCF Done:  E(RB3LYP) =  -615.950968224     A.U. after   10 cycles
 SCF Done:  E(RB3LYP) =  -615.950968885     A.U. after    8 cycles
 SCF Done:  E(RB3LYP) =  -615.950968941     A.U. after    7 cycles
 SCF Done:  E(RB3LYP) =  -615.950968951     A.U. after    6 cycles
 Optimization completed.
    -- Stationary point found.
 Normal termination of Gaussian 16 at Mon Oct 14 13:41:15 2019.

 --------------------------------------------------------------------
 #P Geom=AllCheck Guess=TCheck SCRF=Check GenChk RB3LYP/6-31G(d) Freq
 --------------------------------------------------------------------

 Structure from the checkpoint file:  "09.chk"
 ------------------
 methylbenzophenone
 ------------------
 Charge =  0 Multiplicity = 1

                         Standard orientation:
 ---------------------------------------------------------------------
 Center     Atomic      Atomic             Coordinates (Angstroms)
 Number     Number       Type             X           Y           Z
 ---------------------------------------------------------------------
      1          6           0        2.418927   -1.198984   -0.611196
      2          6           0        3.485355   -0.460713   -0.084911
      3          6           0        3.207772    0.800422    0.468045
      4          6           0        1.912473    1.300333    0.497146
      5          6           0        0.840541    0.543802   -0.005357
      6          6           0        1.112828   -0.711411   -0.568008
      7          6           0       -0.523034    1.164598    0.007376
      8          6           0       -1.755287    0.306354    0.023936
      9          8           0       -0.637101    2.386257    0.004161
     10          6           0       -1.800323   -0.958368    0.630485
     11          6           0       -2.995712   -1.677224    0.673764
     12          6           0       -4.152714   -1.146777    0.101462
     13          6           0       -4.118273    0.115814   -0.498599
     14          6           0       -2.931620    0.842042   -0.524745
     15          6           0        4.894114   -1.003673   -0.098033
     16          1           0        2.612598   -2.167723   -1.065906
     17          1           0        4.022790    1.396899    0.872268
     18          1           0        1.704059    2.284720    0.903878
     19          1           0        0.309646   -1.298581   -1.001670
     20          1           0       -0.908479   -1.369536    1.092455
     21          1           0       -3.023020   -2.649861    1.157587
     22          1           0       -5.080959   -1.711486    0.128305
     23          1           0       -5.019511    0.533963   -0.938836
     24          1           0       -2.891148    1.833001   -0.965351
     25          1           0        5.617677   -0.232080   -0.384440
     26          1           0        5.187188   -1.366057    0.896270
     27          1           0        4.995696   -1.840594   -0.796030
 ---------------------------------------------------------------------

 SCF Done:  E(RB3LYP) =  -615.950968951     A.U. after    1 cycles

 The electronic state is 1-A.
 Alpha  occ. eigenvalues --  -19.12922 -10.27105 -10.20786 -10.20009 -10.19995
 Alpha  occ. eigenvalues --  -10.19957 -10.19914 -10.19735 -10.19724 -10.19578
 Alpha  occ. eigenvalues --  -10.19450 -10.19387 -10.19379 -10.19224 -10.19080
 Alpha  occ. eigenvalues --   -1.02842  -0.86334  -0.85805  -0.78611  -0.75990
 Alpha  occ. eigenvalues --   -0.75053  -0.74814  -0.70114  -0.63871  -0.61248
 Alpha  occ. eigenvalues --   -0.60989  -0.59391  -0.55600  -0.52496  -0.49264
 Alpha  occ. eigenvalues --   -0.47057  -0.46071  -0.45552  -0.44645  -0.42973
 Alpha  occ. eigenvalues --   -0.42662  -0.42508  -0.42321  -0.41431  -0.39666
 Alpha  occ. eigenvalues --   -0.38617  -0.36611  -0.36321  -0.35520  -0.34862
 Alpha  occ. eigenvalues --   -0.34256  -0.33935  -0.25882  -0.25768  -0.25523
 Alpha  occ. eigenvalues --   -0.24992  -0.23909
 Alpha virt. eigenvalues --   -0.05969  -0.01299  -0.00620  -0.00194   0.05828
 Alpha virt. eigenvalues --    0.09250   0.09868   0.12074   0.13381   0.13804
 Alpha virt. eigenvalues --    0.14284   0.15754   0.15977   0.16961   0.18158

 Mulliken charges:
               1
     1  C   -0.189999
     2  C    0.185562
     3  C   -0.182972
     4  C   -0.150462
     5  C    0.069975
     6  C   -0.175981
     7  C    0.318797
     8  C    0.072402
     9  O   -0.467717
    10  C   -0.176609
    11  C   -0.137030
    12  C   -0.119640
    13  C   -0.135352
    14  C   -0.150629
    15  C   -0.531768
    16  H    0.127453
    17  H    0.129343
    18  H    0.158439
    19  H    0.147738
    20  H    0.148160
    21  H    0.135083
    22  H    0.135924
    23  H    0.137124
    24  H    0.158757
    25  H    0.164592
    26  H    0.169780
    27  H    0.159030
 Sum of Mulliken charges =  -0.00000

 Dipole moment (field-independent basis, Debye):
    X=              0.8230    Y=             -3.1047    Z=              0.0319  Tot=              3.2121
 Quadrupole moment (field-independent basis, Debye-Ang):
   XX=            -69.1401   YY=            -88.4679   ZZ=            -87.3029
   XY=              2.3039   XZ=              2.4756   YZ=             -0.1859

  Exact polarizability: 223.827   0.906 142.329  13.282  -0.587  74.555
 Approx polarizability: 305.151  -0.625 264.928  26.317  -0.189 122.452

                      1                      2                      3
                      A                      A                      A
 Frequencies --     31.8981                41.2796                62.7597
 Red. masses --      1.0899                 3.5169                 4.0476
 Frc consts  --      0.0007                 0.0035                 0.0094
 IR Inten    --      0.4338                 0.9202                 0.2473

                      4                      5                      6
                      A                      A                      A
 Frequencies --     80.3489               117.1236               183.3355
 Red. masses --      4.0296                 5.3696                 4.6213
 Frc consts  --      0.0153                 0.0434                 0.0915
 IR Inten    --      0.4828                 1.3597                 1.0923

                      7                      8                      9
                      A                      A                      A
 Frequencies --    214.1386               270.0966               284.8131
 Red. masses --      4.6923                 5.2399                 4.6766
 Frc consts  --      0.1268                 0.2252                 0.2235
 IR Inten    --      2.2549                 0.4956                 3.8617

                     10                     11                     12
                      A                      A                      A
 Frequencies --    354.3429               383.9623               415.3178
 Red. masses --      3.0101                 6.7267                 2.9799
 Frc consts  --      0.2227                 0.5843                 0.3028
 IR Inten    --      2.1742                 3.0739                 0.3200

                     13                     14                     15
                      A                      A                      A
 Frequencies --    427.4085               444.3294               485.4634
 Red. masses --      3.0810                 4.0820                 3.3049
 Frc consts  --      0.3316                 0.4748                 0.4589
 IR Inten    --      0.0197                 2.3723                 5.2454

                     16                     17                     18
                      A                      A                      A
 Frequencies --    560.3851               613.2633               632.3627
 Red. masses --      4.6310                 5.4135                 6.4341
 Frc consts  --      0.8568                 1.1996                 1.5159
 IR Inten    --      1.1058                18.3699                 1.0796

                     19                     20                     21
                      A                      A                      A
 Frequencies --    653.7402               689.5808               707.3489
 Red. masses --      6.7885                 4.6118                 5.3865
 Frc consts  --      1.7094                 1.2921                 1.5879
 IR Inten    --      1.0466                12.5408                 5.5656

                     22                     23                     24
                      A                      A                      A
 Frequencies --    715.1221               746.2747               805.4386
 Red. masses --      1.7394                 2.3806                 1.9181
 Frc consts  --      0.5241                 0.7811                 0.7331
 IR Inten    --     41.0902                34.9978                10.4440

                     25                     26                     27
                      A                      A                      A
 Frequencies --    814.9836               855.8820               866.3147
 Red. masses --      4.9735                 1.6491                 1.3825
 Frc consts  --      1.9463                 0.7117                 0.6113
 IR Inten    --      3.2900                10.5592                 5.4739

                     28                     29                     30
                      A                      A                      A
 Frequencies --    870.3306               941.1181               957.3043
 Red. masses --      1.2505                 2.7694                 1.9396
 Frc consts  --      0.5581                 1.4452                 1.0473
 IR Inten    --      1.0103                50.0572                22.3370

                     31                     32                     33
                      A                      A                      A
 Frequencies --    974.6852               983.7030               987.9247
 Red. masses --      1.3295                 1.3384                 1.3349
 Frc consts  --      0.7442                 0.7631                 0.7676
 IR Inten    --      1.4364                 0.4688                 7.6527

                     34                     35                     36
                      A                      A                      A
 Frequencies --   1004.9590              1018.5829              1020.8584
 Red. masses --      1.2688                 6.0843                 1.4200
 Frc consts  --      0.7550                 3.7192                 0.8719
 IR Inten    --      0.8066                 1.5615                 5.7546

                     37                     38                     39
                      A                      A                      A
 Frequencies --   1041.4024              1057.8060              1074.6171
 Red. masses --      2.8387                 2.1674                 1.5386
 Frc consts  --      1.8139                 1.4289                 1.0469
 IR Inten    --      1.5079                 1.3693                10.4587

                     40                     41                     42
                      A                      A                      A
 Frequencies --   1113.4690              1151.0683              1172.9654
 Red. masses --      1.5697                 1.3155                 3.4229
 Frc consts  --      1.1466                 1.0269                 2.7747
 IR Inten    --      4.5381                 5.9348                 6.6964

                     43                     44                     45
                      A                      A                      A
 Frequencies --   1194.2584              1210.9449              1220.7440
 Red. masses --      1.1046                 1.1395                 1.1826
 Frc consts  --      0.9282                 0.9845                 1.0383
 IR Inten    --      0.0843                39.5618                13.9162

                     46                     47                     48
                      A                      A                      A
 Frequencies --   1241.0514              1300.3895              1347.7917
 Red. masses --      3.0810                 3.9599                 1.5716
 Frc consts  --      2.7959                 3.9453                 1.6821
 IR Inten    --      5.4727               304.9144                42.6603

                     49                     50                     51
                      A                      A                      A
 Frequencies --   1350.0542              1355.0850              1366.8328
 Red. masses --      2.1250                 5.2843                 2.3425
 Frc consts  --      2.2820                 5.7170                 2.5785
 IR Inten    --      8.0519                 3.6763                 3.1617

                     52                     53                     54
                      A                      A                      A
 Frequencies --   1442.2083              1452.9239              1492.5823
 Red. masses --      1.2488                 2.6228                 2.2288
 Frc consts  --      1.5304                 3.2621                 2.9255
 IR Inten    --      0.1647                11.9415                13.8899

                     55                     56                     57
                      A                      A                      A
 Frequencies --   1515.6983              1520.9179              1538.2480
 Red. masses --      1.0529                 1.1032                 2.1695
 Frc consts  --      1.4252                 1.5035                 3.0246
 IR Inten    --      6.2839                10.1216                 0.8161

                     58                     59                     60
                      A                      A                      A
 Frequencies --   1555.8135              1620.5595              1635.9532
 Red. masses --      2.4611                 5.4966                 5.3844
 Frc consts  --      3.5099                 8.5050                 8.4904
 IR Inten    --      0.4598                 6.7974                 6.0158

                     61                     62                     63
                      A                      A                      A
 Frequencies --   1657.6582              1666.7143              1736.4474
 Red. masses --      5.5100                 5.7190                12.1759
 Frc consts  --      8.9206                 9.3604                21.6309
 IR Inten    --     17.7500                69.0024               152.7850

                     64                     65                     66
                      A                      A                      A
 Frequencies --   3042.8592              3098.5890              3128.0312
 Red. masses --      1.0399                 1.0970                 1.1021
 Frc consts  --      5.6726                 6.2057                 6.3537
 IR Inten    --     28.1265                18.9824                15.2989

                     67                     68                     69
                      A                      A                      A
 Frequencies --   3180.0690              3182.1461              3183.8412
 Red. masses --      1.0893                 1.0888                 1.0854
 Frc consts  --      6.4905                 6.4961                 6.4826
 IR Inten    --     18.8833                17.7456                 0.0361

                     70                     71                     72
                      A                      A                      A
 Frequencies --   3194.4606              3205.3088              3212.7924
 Red. masses --      1.0892                 1.0934                 1.0933
 Frc consts  --      6.5489                 6.6186                 6.6490
 IR Inten    --     13.1872                34.0064                 5.7394

                     73                     74                     75
                      A                      A                      A
 Frequencies --   3217.3178              3221.1301              3222.9111
 Red. masses --      1.0929                 1.0922                 1.0935
 Frc consts  --      6.6655                 6.6766                 6.6922
 IR Inten    --     11.1791                 4.7974                 6.6679

 - Thermochemistry -
 -------------------
 Temperature     0.001 Kelvin.  Pressure   1.00000 Atm.
 Atom     1 has atomic number  6 and mass  12.00000

 Molecular mass:   196.08882 amu.
 Principal axes and moments of inertia in atomic units:
                           1         2         3
     Eigenvalues --  1150.212185790.384866651.17406
           X            0.99999  -0.00338   0.00182
           Y            0.00338   0.99999   0.00068
           Z           -0.00182  -0.00068   1.00000
 This molecule is an asymmetric top.
 Rotational symmetry number  1.
 Warning -- assumption of classical behavior for rotation
           may cause significant error
 Rotational temperatures (Kelvin)      0.07530     0.01496     0.01302
 Rotational constants (GHZ):           1.56905     0.31168     0.27134
 Zero-point vibrational energy     576243.8 (Joules/Mol)
                                  137.72558 (Kcal/Mol)
 Vibrational temperatures:     45.89    59.39    90.30   115.60   168.51
          (Kelvin)            263.78   308.10   388.61   409.78   509.82
                              552.44   597.55   614.95   639.29   698.47
                              806.27   882.35   909.83   940.59   992.15
                             1017.72  1028.90  1073.72  1158.85  1172.58
                             1231.42  1246.43  1252.21  1354.06  1377.35
                             1402.35  1415.33  1421.40  1445.91  1465.51
                             1468.79  1498.35  1521.95  1546.13  1602.03
                             1656.13  1687.64  1718.27  1742.28  1756.38
                             1785.60  1870.97  1939.17  1942.43  1949.67
                             1966.57  2075.02  2090.43  2147.49  2180.75
                             2188.26  2213.20  2238.47  2331.62  2353.77
                             2385.00  2398.03  2498.36  4378.00  4458.18
                             4500.54  4575.41  4578.40  4580.84  4596.12
                             4611.72  4622.49  4629.00  4634.49  4637.05

 Zero-point correction=                           0.219480 (Hartree/Particle)
 Thermal correction to Energy=                    0.219480
 Thermal correction to Enthalpy=                  0.219480
 Thermal correction to Gibbs Free Energy=         0.219480
 Sum of electronic and zero-point Energies=           -615.731489
 Sum of electronic and thermal Energies=              -615.731489
 Sum of electronic and thermal Enthalpies=            -615.731489
 Sum of electronic and thermal Free Energies=         -615.731489

                     E (Thermal)             CV                S
                      KCal/Mol        Cal/Mol-Kelvin    Cal/Mol-Kelvin
 Total                  137.726              5.962            -26.312
 Electronic               0.000              0.000              0.000
 Translational            0.000              2.981            -20.898
 Rotational               0.000              2.981             -5.414
 Vibrational            137.726              0.000              0.000

 Optimization completed.
    -- Stationary point found.
 Normal termination of Gaussian 16 at Mon Oct 14 13:42:20 2019.
