 Gaussian 16, Revision A.03,
 Gaussian 16:  ES64L-G16RevA.03 25-Dec-2016

 --------------------------------------------------------------
 #p opt freq b3lyp/6-31g(d) geom=connectivity temperature=0.001
 --------------------------------------------------------------

 ------------------
 methylbenzophenone
 ------------------
 Symbolic Z-matrix:
 Charge =  1 Multiplicity = 1

 SCF Done:  E(RB3LYP) =  -616.257056942     A.U. after   17 cycles
 SCF Done:  E(RB3LYP) =  -616.286916044     A.U. after   13 cycles
 SCF Done:  E(RB3LYP) =  -616.290981385     A.U. after   15 cycles
 SCF Done:  E(RB3LYP) =  -616.297320138     A.U. after   13 cycles
 SCF Done:  E(RB3LYP) =  -616.302884409     A.U. after   13 cycles
 SCF Done:  E(RB3LYP) =  -616.309928554     A.U. after   15 cycles
 SCF Done:  E(RB3LYP) =  -616.312448073     A.U. after   12 cycles
 SCF Done:  E(RB3LYP) =  -616.313322589     A.U. after   12 cycles
 SCF Done:  E(RB3LYP) =  -616.313521535     A.U. after   11 cycles
 SCF Done:  E(RB3LYP) =  -616.313564947     A.U. after   11 cycles
 SCF Done:  E(RB3LYP) =  -616.313570152     A.U. after    8 cycles
 SCF Done:  E(RB3LYP) =  -616.313570768     A.U. after    8 cycles
 SCF Done:  E(RB3LYP) =  -616.313571675     A.U. after    9 cycles
 SCF Done:  E(RB3LYP) =  -616.313572636     A.U. after    9 cycles
 SCF Done:  E(RB3LYP) =  -616.313573709     A.U. after    9 cycles
 SCF Done:  E(RB3LYP) =  -616.313574572     A.U. after    9 cycles
 SCF Done:  E(RB3LYP) =  -616.313575009     A.U. after    8 cycles
 SCF Done:  E(RB3LYP) =  -616.313575052     A.U. after    7 cycles
 SCF Done:  E(RB3LYP) =  -616.313575061     A.U. after    6 cycles
 Optimization completed.
    -- Stationary point found.
 Normal termination of Gaussian 16 at Mon Oct 14 13:42:01 2019.

 --------------------------------------------------------------------
 #P Geom=AllCheck Guess=TCheck SCRF=Check GenChk RB3LYP/6-31G(d) Freq
 --------------------------------------------------------------------

 Structure from the checkpoint file:  "09_p.chk"
 ------------------
 methylbenzophenone
 ------------------
 Charge =  1 Multiplicity = 1

                         Standard orientation:
 ---------------------------------------------------------------------
 Center     Atomic      Atomic             Coordinates (Angstroms)
 Number     Number       Type             X           Y           Z
 ---------------------------------------------------------------------
      1          6           0        2.437249   -1.191190   -0.659698
      2          6           0        3.481084   -0.457931   -0.068949
      3          6           0        3.170438    0.771954    0.546938
      4          6           0        1.874403    1.254678    0.565600
      5          6           0        0.821517    0.503315   -0.016176
      6          6           0        1.128298   -0.733749   -0.629912
      7          6           0       -0.520448    1.035958   -0.032716
      8          6           0       -1.737824    0.272204    0.012501
      9          8           0       -0.690146    2.344125   -0.085275
     10          6           0       -1.758415   -1.035101    0.560323
     11          6           0       -2.950960   -1.741576    0.620962
     12          6           0       -4.131233   -1.163687    0.138415
     13          6           0       -4.126955    0.132274   -0.395389
     14          6           0       -2.945435    0.853979   -0.451219
     15          6           0        4.892816   -0.973712   -0.072431
     16          1           0        2.661371   -2.128456   -1.160168
     17          1           0        3.961015    1.344971    1.022759
     18          1           0        1.664173    2.181032    1.095848
     19          1           0        0.348858   -1.296939   -1.131183
     20          1           0       -0.854130   -1.463520    0.977246
     21          1           0       -2.969333   -2.735457    1.056038
     22          1           0       -5.061475   -1.722221    0.185720
     23          1           0       -5.047455    0.570967   -0.766467
     24          1           0       -2.931625    1.853039   -0.871885
     25          1           0        5.610652   -0.169218   -0.262754
     26          1           0        5.142309   -1.401504    0.907902
     27          1           0        5.036968   -1.756071   -0.821847
     28          1           0        0.152617    2.805871   -0.258504
 ---------------------------------------------------------------------

 SCF Done:  E(RB3LYP) =  -616.313575061     A.U. after    1 cycles

 The electronic state is 1-A.
 Alpha  occ. eigenvalues --  -19.38667 -10.47219 -10.36780 -10.36259 -10.35874
 Alpha  occ. eigenvalues --  -10.35848 -10.35614 -10.35236 -10.34862 -10.34572
 Alpha  occ. eigenvalues --  -10.34004 -10.33791 -10.33570 -10.33462 -10.30667
 Alpha  occ. eigenvalues --   -1.27505  -1.02327  -1.00850  -0.95184  -0.91768
 Alpha  occ. eigenvalues --   -0.90260  -0.89620  -0.85457  -0.82117  -0.76842
 Alpha  occ. eigenvalues --   -0.76156  -0.74807  -0.73959  -0.70165  -0.67813
 Alpha  occ. eigenvalues --   -0.63182  -0.62010  -0.61775  -0.60653  -0.59739
 Alpha  occ. eigenvalues --   -0.58109  -0.57901  -0.57545  -0.56652  -0.54907
 Alpha  occ. eigenvalues --   -0.54114  -0.51643  -0.51309  -0.50518  -0.50374
 Alpha  occ. eigenvalues --   -0.49607  -0.48857  -0.48578  -0.42071  -0.40789
 Alpha  occ. eigenvalues --   -0.39974  -0.39628
 Alpha virt. eigenvalues --   -0.25533  -0.16605  -0.15655  -0.14470  -0.10358
 Alpha virt. eigenvalues --   -0.08025  -0.03353  -0.02768  -0.01095   0.00247
 Alpha virt. eigenvalues --    0.00616   0.01587   0.02154   0.03076   0.04301

 Mulliken charges:
               1
     1  C   -0.175467
     2  C    0.190051
     3  C   -0.164901
     4  C   -0.186600
     5  C    0.074824
     6  C   -0.147480
     7  C    0.291222
     8  C    0.079216
     9  O   -0.517958
    10  C   -0.152993
    11  C   -0.131512
    12  C   -0.095112
    13  C   -0.127318
    14  C   -0.126964
    15  C   -0.541084
    16  H    0.181008
    17  H    0.182450
    18  H    0.179122
    19  H    0.189271
    20  H    0.185801
    21  H    0.187534
    22  H    0.194420
    23  H    0.190483
    24  H    0.193909
    25  H    0.196092
    26  H    0.207048
    27  H    0.190937
    28  H    0.453999
 Sum of Mulliken charges =   1.00000

 Dipole moment (field-independent basis, Debye):
    X=              0.5381    Y=              0.6051    Z=             -0.2555  Tot=              0.8491
 Quadrupole moment (field-independent basis, Debye-Ang):
   XX=            -29.8561   YY=            -64.9792   ZZ=            -84.1327
   XY=              3.8848   XZ=              2.4334   YZ=             -0.9002

  Exact polarizability: 284.105   4.371 142.686   9.899   0.202  72.965
 Approx polarizability: 418.598   5.680 264.497  21.897   1.178 119.226

                      1                      2                      3
                      A                      A                      A
 Frequencies --     27.0539                52.6529                69.4528
 Red. masses --      1.0312                 3.8952                 4.3197
 Frc consts  --      0.0004                 0.0064                 0.0123
 IR Inten    --      0.6439                 1.3556                 0.1572

                      4                      5                      6
                      A                      A                      A
 Frequencies --     84.2417               127.0532               178.8135
 Red. masses --      3.7995                 4.8694                 4.2465
 Frc consts  --      0.0159                 0.0463                 0.0800
 IR Inten    --      0.4636                 3.3950                 3.0191

                      7                      8                      9
                      A                      A                      A
 Frequencies --    224.2859               276.8406               285.0925
 Red. masses --      4.6016                 4.3346                 5.1327
 Frc consts  --      0.1364                 0.1957                 0.2458
 IR Inten    --      1.3648                 2.2014                 0.6525

                     10                     11                     12
                      A                      A                      A
 Frequencies --    356.9669               386.2536               408.2633
 Red. masses --      3.0334                 4.7675                 2.9275
 Frc consts  --      0.2277                 0.4191                 0.2875
 IR Inten    --      2.0734                 3.0625                 7.1914

                     13                     14                     15
                      A                      A                      A
 Frequencies --    422.8822               435.8152               485.8265
 Red. masses --      3.0278                 3.6554                 3.1906
 Frc consts  --      0.3190                 0.4091                 0.4437
 IR Inten    --      1.1651                12.1447                 3.7815

                     16                     17                     18
                      A                      A                      A
 Frequencies --    549.8736               596.1852               624.4021
 Red. masses --      4.8012                 4.4111                 6.3587
 Frc consts  --      0.8553                 0.9238                 1.4607
 IR Inten    --      1.5849                26.1383                 2.5458

                     19                     20                     21
                      A                      A                      A
 Frequencies --    641.3509               652.1381               680.1628
 Red. masses --      2.4853                 1.7399                 2.7692
 Frc consts  --      0.6023                 0.4360                 0.7548
 IR Inten    --     48.5729                53.6735                 4.8806

                     22                     23                     24
                      A                      A                      A
 Frequencies --    703.4414               707.2043               742.1892
 Red. masses --      2.2888                 4.7544                 2.5297
 Frc consts  --      0.6673                 1.4010                 0.8210
 IR Inten    --     25.7344                18.2045                48.9063

                     25                     26                     27
                      A                      A                      A
 Frequencies --    809.2964               813.1482               846.9620
 Red. masses --      2.0532                 4.9838                 1.5762
 Frc consts  --      0.7923                 1.9415                 0.6662
 IR Inten    --     17.6020                 8.0913                18.5923

                     28                     29                     30
                      A                      A                      A
 Frequencies --    856.2815               863.9418               923.0601
 Red. masses --      1.2522                 1.2584                 4.1402
 Frc consts  --      0.5410                 0.5534                 2.0784
 IR Inten    --     17.3144                 2.1978                17.9523

                     31                     32                     33
                      A                      A                      A
 Frequencies --    979.2224               989.3847               997.2470
 Red. masses --      1.3506                 1.3030                 1.3342
 Frc consts  --      0.7630                 0.7515                 0.7818
 IR Inten    --      1.5532                 1.2086                 1.3064

                     34                     35                     36
                      A                      A                      A
 Frequencies --   1002.1371              1012.7760              1023.8891
 Red. masses --      1.3769                 5.1360                 1.4888
 Frc consts  --      0.8147                 3.1038                 0.9196
 IR Inten    --      2.4003                17.0155                 3.5313

                     37                     38                     39
                      A                      A                      A
 Frequencies --   1030.2002              1034.5745              1051.7177
 Red. masses --      2.5816                 1.3486                 2.2547
 Frc consts  --      1.6143                 0.8504                 1.4694
 IR Inten    --      6.3560                 0.3135                 0.3593

                     40                     41                     42
                      A                      A                      A
 Frequencies --   1068.9571              1128.3275              1170.3827
 Red. masses --      1.6192                 1.6030                 1.3412
 Frc consts  --      1.0901                 1.2024                 1.0825
 IR Inten    --     22.0029                12.4265                 3.2454

                     43                     44                     45
                      A                      A                      A
 Frequencies --   1195.1114              1207.2664              1217.4542
 Red. masses --      3.3197                 1.0965                 1.2340
 Frc consts  --      2.7936                 0.9416                 1.0777
 IR Inten    --      5.4219                 1.9387               205.2302

                     46                     47                     48
                      A                      A                      A
 Frequencies --   1231.7993              1248.1493              1253.1999
 Red. masses --      1.3194                 1.7586                 2.0105
 Frc consts  --      1.1795                 1.6142                 1.8604
 IR Inten    --     23.3010               125.0195                71.2275

                     49                     50                     51
                      A                      A                      A
 Frequencies --   1344.5351              1348.6017              1363.2177
 Red. masses --      1.8332                 2.2117                 2.4003
 Frc consts  --      1.9526                 2.3699                 2.6281
 IR Inten    --     14.8639                36.7561                17.1811

                     52                     53                     54
                      A                      A                      A
 Frequencies --   1388.0268              1431.6173              1439.3526
 Red. masses --      2.8722                 4.6616                 1.2275
 Frc consts  --      3.2603                 5.6290                 1.4983
 IR Inten    --     27.6106               200.6928                 2.2490

                     55                     56                     57
                      A                      A                      A
 Frequencies --   1457.6905              1484.7801              1504.1751
 Red. masses --      2.5701                 2.0055                 2.0124
 Frc consts  --      3.2176                 2.6049                 2.6826
 IR Inten    --    132.1984               188.4001               200.6575

                     58                     59                     60
                      A                      A                      A
 Frequencies --   1506.4878              1513.9507              1540.6836
 Red. masses --      1.2981                 1.1613                 2.2981
 Frc consts  --      1.7357                 1.5683                 3.2140
 IR Inten    --     73.7047                29.1163                73.2447

                     61                     62                     63
                      A                      A                      A
 Frequencies --   1560.5349              1596.6273              1617.4401
 Red. masses --      2.8844                 4.6487                 4.5657
 Frc consts  --      4.1386                 6.9821                 7.0374
 IR Inten    --    314.9604                16.8049                 9.9719

                     64                     65                     66
                      A                      A                      A
 Frequencies --   1647.0983              1658.5460              3051.5265
 Red. masses --      5.1538                 5.4097                 1.0426
 Frc consts  --      8.2380                 8.7676                 5.7199
 IR Inten    --    416.9001                62.3852                 0.3356

                     67                     68                     69
                      A                      A                      A
 Frequencies --   3113.8340              3152.2934              3183.6706
 Red. masses --      1.0939                 1.1031                 1.0893
 Frc consts  --      6.2493                 6.4583                 6.5054
 IR Inten    --      6.6060                 6.8184                 1.2263

                     70                     71                     72
                      A                      A                      A
 Frequencies --   3211.2528              3212.3411              3212.9791
 Red. masses --      1.0899                 1.0883                 1.0938
 Frc consts  --      6.6220                 6.6168                 6.6526
 IR Inten    --      1.8502                 0.0175                 2.4613

                     73                     74                     75
                      A                      A                      A
 Frequencies --   3222.6526              3228.0096              3231.6272
 Red. masses --      1.0899                 1.0931                 1.0943
 Frc consts  --      6.6692                 6.7110                 6.7335
 IR Inten    --      0.6482                 1.2846                 0.3253

                     76                     77                     78
                      A                      A                      A
 Frequencies --   3238.0619              3240.9769              3668.8996
 Red. masses --      1.0945                 1.0957                 1.0655
 Frc consts  --      6.7613                 6.7809                 8.4505
 IR Inten    --      0.4020                 1.6258               102.8894

 - Thermochemistry -
 -------------------
 Temperature     0.001 Kelvin.  Pressure   1.00000 Atm.
 Atom     1 has atomic number  6 and mass  12.00000

 Molecular mass:   197.09664 amu.
 Principal axes and moments of inertia in atomic units:
                           1         2         3
     Eigenvalues --  1162.555315756.946806629.22983
           X            0.99999  -0.00318   0.00189
           Y            0.00318   0.99999   0.00200
           Z           -0.00189  -0.00199   1.00000
 This molecule is an asymmetric top.
 Rotational symmetry number  1.
 Warning -- assumption of classical behavior for rotation
           may cause significant error
 Rotational temperatures (Kelvin)      0.07450     0.01505     0.01307
 Rotational constants (GHZ):           1.55239     0.31349     0.27224
 Zero-point vibrational energy     610361.2 (Joules/Mol)
                                  145.87982 (Kcal/Mol)
 Vibrational temperatures:     38.92    75.76    99.93   121.21   182.80
          (Kelvin)            257.27   322.70   398.31   410.18   513.60
                              555.73   587.40   608.43   627.04   699.00
                              791.15   857.78   898.38   922.76   938.28
                              978.60  1012.10  1017.51  1067.84  1164.40
                             1169.94  1218.59  1232.00  1243.02  1328.08
                             1408.88  1423.50  1434.82  1441.85  1457.16
                             1473.15  1482.23  1488.52  1513.19  1537.99
                             1623.41  1683.92  1719.50  1736.99  1751.65
                             1772.28  1795.81  1803.08  1934.49  1940.34
                             1961.37  1997.06  2059.78  2070.91  2097.29
                             2136.27  2164.17  2167.50  2178.24  2216.70
                             2245.26  2297.19  2327.14  2369.81  2386.28
                             4390.47  4480.11  4535.45  4580.59  4620.28
                             4621.84  4622.76  4636.68  4644.39  4649.59
                             4658.85  4663.04  5278.73

 Zero-point correction=                           0.232474 (Hartree/Particle)
 Thermal correction to Energy=                    0.232474
 Thermal correction to Enthalpy=                  0.232474
 Thermal correction to Gibbs Free Energy=         0.232474
 Sum of electronic and zero-point Energies=           -616.081101
 Sum of electronic and thermal Energies=              -616.081101
 Sum of electronic and thermal Enthalpies=            -616.081101
 Sum of electronic and thermal Free Energies=         -616.081101

                     E (Thermal)             CV                S
                      KCal/Mol        Cal/Mol-Kelvin    Cal/Mol-Kelvin
 Total                  145.880              5.962            -26.295
 Electronic               0.000              0.000              0.000
 Translational            0.000              2.981            -20.883
 Rotational               0.000              2.981             -5.412
 Vibrational            145.880              0.000              0.000

 Optimization completed.
    -- Stationary point found.
 Normal termination of Gaussian 16 at Mon Oct 14 13:43:10 2019.
