 Gaussian 16, Revision A.03,
 Gaussian 16:  ES64L-G16RevA.03 25-Dec-2016

 --------------------------------------------------------------
 #p opt freq b3lyp/6-31g(d) geom=connectivity temperature=0.001
 --------------------------------------------------------------

 -----------------------
 Nitro quinoline n oxide
 -----------------------
 Symbolic Z-matrix:
 Charge =  0 Multiplicity = 1

 SCF Done:  E(RB3LYP) =  -606.384780315     A.U. after   17 cycles
 SCF Done:  E(RB3LYP) =  -606.414359006     A.U. after   15 cycles
 SCF Done:  E(RB3LYP) =  -606.421221057     A.U. after   14 cycles
 SCF Done:  E(RB3LYP) =  -606.421583610     A.U. after   14 cycles
 SCF Done:  E(RB3LYP) =  -606.421749086     A.U. after   14 cycles
 SCF Done:  E(RB3LYP) =  -606.422206474     A.U. after   14 cycles
 SCF Done:  E(RB3LYP) =  -606.422272613     A.U. after   12 cycles
 SCF Done:  E(RB3LYP) =  -606.422319601     A.U. after   13 cycles
 SCF Done:  E(RB3LYP) =  -606.422425282     A.U. after   15 cycles
 SCF Done:  E(RB3LYP) =  -606.422488914     A.U. after   13 cycles
 SCF Done:  E(RB3LYP) =  -606.422561755     A.U. after   13 cycles
 SCF Done:  E(RB3LYP) =  -606.422568297     A.U. after   10 cycles
 SCF Done:  E(RB3LYP) =  -606.422569676     A.U. after   10 cycles
 SCF Done:  E(RB3LYP) =  -606.422569878     A.U. after   10 cycles
 Optimization completed.
    -- Stationary point found.
 Normal termination of Gaussian 16 at Mon Oct 14 13:40:24 2019.

 --------------------------------------------------------------------
 #P Geom=AllCheck Guess=TCheck SCRF=Check GenChk RB3LYP/6-31G(d) Freq
 --------------------------------------------------------------------

 Structure from the checkpoint file:  "10.chk"
 -----------------------
 Nitro quinoline n oxide
 -----------------------
 Charge =  0 Multiplicity = 1

                         Standard orientation:
 ---------------------------------------------------------------------
 Center     Atomic      Atomic             Coordinates (Angstroms)
 Number     Number       Type             X           Y           Z
 ---------------------------------------------------------------------
      1          6           0        0.293703   -0.226580   -0.000254
      2          6           0        1.274894    0.828843   -0.023475
      3          7           0        0.957194    2.153884   -0.072159
      4          6           0       -0.315554    2.489785   -0.076802
      5          6           0       -1.373585    1.554994   -0.036557
      6          6           0       -1.061508    0.216760   -0.013343
      7          6           0        0.746320   -1.572354    0.067882
      8          6           0        2.095009   -1.850169    0.106343
      9          6           0        3.059118   -0.814924    0.071663
     10          6           0        2.655350    0.497087    0.008299
     11          7           0       -2.205713   -0.720504   -0.008324
     12          8           0       -3.266032   -0.308305    0.457751
     13          8           0       -2.043716   -1.841669   -0.488546
     14          1           0       -0.542054    3.553756   -0.114530
     15          1           0       -2.408000    1.874528   -0.029915
     16          1           0        0.024070   -2.376058    0.085111
     17          1           0        2.422072   -2.884623    0.161557
     18          1           0        4.116591   -1.061818    0.098690
     19          1           0        3.362464    1.319696   -0.013700
 ---------------------------------------------------------------------

 SCF Done:  E(RB3LYP) =  -606.422569878     A.U. after    1 cycles

 The electronic state is 1-A.
 Alpha  occ. eigenvalues --  -19.19403 -19.19334 -14.58421 -14.35472 -10.27432
 Alpha  occ. eigenvalues --  -10.24879 -10.24855 -10.23709 -10.23003 -10.21363
 Alpha  occ. eigenvalues --  -10.21309 -10.21058 -10.20827  -1.23689  -1.06373
 Alpha  occ. eigenvalues --   -0.96842  -0.87257  -0.85630  -0.77519  -0.76592
 Alpha  occ. eigenvalues --   -0.73267  -0.65531  -0.64981  -0.60378  -0.55987
 Alpha  occ. eigenvalues --   -0.55280  -0.54175  -0.53387  -0.51389  -0.48870
 Alpha  occ. eigenvalues --   -0.47456  -0.45042  -0.44710  -0.43430  -0.43211
 Alpha  occ. eigenvalues --   -0.37844  -0.37318  -0.36109  -0.33593  -0.32068
 Alpha  occ. eigenvalues --   -0.31820  -0.29975  -0.27713  -0.27271  -0.25243
 Alpha virt. eigenvalues --   -0.10689  -0.05027  -0.03737   0.01050   0.07265
 Alpha virt. eigenvalues --    0.08737   0.09254   0.13470   0.15180   0.16366
 Alpha virt. eigenvalues --    0.17374   0.17461   0.18516   0.21795   0.23320

 Mulliken charges:
               1
     1  C    0.133245
     2  C    0.225054
     3  N   -0.475243
     4  C    0.042338
     5  C   -0.171416
     6  C    0.245266
     7  C   -0.179133
     8  C   -0.132477
     9  C   -0.128484
    10  C   -0.140547
    11  N    0.361355
    12  O   -0.375360
    13  O   -0.380452
    14  H    0.158139
    15  H    0.187974
    16  H    0.180477
    17  H    0.147328
    18  H    0.145783
    19  H    0.156152
 Sum of Mulliken charges =  -0.00000

 Dipole moment (field-independent basis, Debye):
    X=              2.4072    Y=              0.6742    Z=              0.0890  Tot=              2.5014
 Quadrupole moment (field-independent basis, Debye-Ang):
   XX=            -74.2310   YY=            -69.9505   ZZ=            -74.4513
   XY=            -10.7338   XZ=              1.3294   YZ=             -1.6494

  Exact polarizability: 155.737 -17.570 137.758  -1.509   0.227  40.614
 Approx polarizability: 273.063 -39.503 267.651  -8.423   7.363  69.430

                      1                      2                      3
                      A                      A                      A
 Frequencies --     51.6182                99.7760               181.4429
 Red. masses --     13.2151                 4.9728                 4.3770
 Frc consts  --      0.0207                 0.0292                 0.0849
 IR Inten    --      0.2442                 2.5217                 4.2330

                      4                      5                      6
                      A                      A                      A
 Frequencies --    219.4352               223.4450               362.4107
 Red. masses --      6.4717                 6.7112                10.2914
 Frc consts  --      0.1836                 0.1974                 0.7964
 IR Inten    --      2.8024                 1.9339                 1.0657

                      7                      8                      9
                      A                      A                      A
 Frequencies --    368.6298               420.0125               478.2941
 Red. masses --      7.1312                 3.9888                 3.1935
 Frc consts  --      0.5709                 0.4146                 0.4304
 IR Inten    --      1.9213                 2.9694                 0.9496

                     10                     11                     12
                      A                      A                      A
 Frequencies --    486.3744               530.8474               544.5209
 Red. masses --      5.1369                 5.9215                 7.7466
 Frc consts  --      0.7160                 0.9831                 1.3533
 IR Inten    --      2.8827                 2.6859                 0.3572

                     13                     14                     15
                      A                      A                      A
 Frequencies --    607.6717               642.9218               668.4404
 Red. masses --      5.4599                 4.0550                 7.1187
 Frc consts  --      1.1879                 0.9875                 1.8740
 IR Inten    --      3.1773                 2.2461                19.4905

                     16                     17                     18
                      A                      A                      A
 Frequencies --    745.1992               794.3919               795.0540
 Red. masses --      3.0610                 1.7760                 3.7471
 Frc consts  --      1.0015                 0.6603                 1.3955
 IR Inten    --      0.6169                53.9965                 4.3068

                     19                     20                     21
                      A                      A                      A
 Frequencies --    800.4936               827.2392               880.7591
 Red. masses --      4.9415                 5.4603                 1.6606
 Frc consts  --      1.8656                 2.2015                 0.7590
 IR Inten    --     26.8143                 1.5486                12.2088

                     22                     23                     24
                      A                      A                      A
 Frequencies --    884.2737               899.0569               979.4161
 Red. masses --      4.0061                 1.6563                 1.3408
 Frc consts  --      1.8457                 0.7888                 0.7578
 IR Inten    --      8.8768                 5.0174                 1.2529

                     25                     26                     27
                      A                      A                      A
 Frequencies --    985.6991              1008.9014              1014.2879
 Red. masses --      1.4064                 1.2900                 6.0798
 Frc consts  --      0.8051                 0.7736                 3.6852
 IR Inten    --      1.6053                 0.0203                13.4954

                     28                     29                     30
                      A                      A                      A
 Frequencies --   1055.3961              1101.1933              1168.7337
 Red. masses --      2.2621                 2.1569                 1.3833
 Frc consts  --      1.4845                 1.5410                 1.1133
 IR Inten    --      6.1622                 3.4358                 4.1335

                     31                     32                     33
                      A                      A                      A
 Frequencies --   1188.5023              1227.6404              1261.0165
 Red. masses --      1.4580                 1.8274                 2.1258
 Frc consts  --      1.2134                 1.6227                 1.9916
 IR Inten    --     12.3752                 8.6815                 2.5234

                     34                     35                     36
                      A                      A                      A
 Frequencies --   1292.9136              1356.2601              1379.8547
 Red. masses --      1.7443                 5.4648                 5.2603
 Frc consts  --      1.7179                 5.9225                 5.9011
 IR Inten    --      4.9914                 1.5986               102.9103

                     37                     38                     39
                      A                      A                      A
 Frequencies --   1400.0029              1425.3096              1466.7063
 Red. masses --      8.5368                 1.8919                 2.3266
 Frc consts  --      9.8583                 2.2645                 2.9489
 IR Inten    --    134.9351                21.4270                 8.5318

                     40                     41                     42
                      A                      A                      A
 Frequencies --   1507.7376              1550.8624              1609.0235
 Red. masses --      2.5629                 3.3137                 6.6644
 Frc consts  --      3.4327                 4.6957                10.1657
 IR Inten    --      1.8932                37.4560                 3.6397

                     43                     44                     45
                      A                      A                      A
 Frequencies --   1625.7717              1665.8842              1674.5220
 Red. masses --      9.8941                 7.1401                 6.5675
 Frc consts  --     15.4079                11.6747                10.8501
 IR Inten    --    177.5082                36.1223                 4.4390

                     46                     47                     48
                      A                      A                      A
 Frequencies --   3181.4035              3195.3175              3209.2285
 Red. masses --      1.0906                 1.0874                 1.0920
 Frc consts  --      6.5038                 6.5411                 6.6265
 IR Inten    --     24.4894                 5.2577                14.8465

                     49                     50                     51
                      A                      A                      A
 Frequencies --   3226.5494              3254.1830              3269.5363
 Red. masses --      1.0952                 1.0928                 1.0918
 Frc consts  --      6.7178                 6.8180                 6.8765
 IR Inten    --      8.4239                 1.4271                 2.4083

 - Thermochemistry -
 -------------------
 Temperature     0.001 Kelvin.  Pressure   1.00000 Atm.
 Atom     1 has atomic number  6 and mass  12.00000

 Molecular mass:   174.04293 amu.
 Principal axes and moments of inertia in atomic units:
                           1         2         3
     Eigenvalues --  1295.725212431.871973673.00382
           X            0.99913  -0.04178   0.00140
           Y            0.04178   0.99912  -0.00361
           Z           -0.00125   0.00367   0.99999
 This molecule is an asymmetric top.
 Rotational symmetry number  1.
 Warning -- assumption of classical behavior for rotation
           may cause significant error
 Rotational temperatures (Kelvin)      0.06685     0.03562     0.02358
 Rotational constants (GHZ):           1.39284     0.74212     0.49135
 Zero-point vibrational energy     363629.8 (Joules/Mol)
                                   86.90962 (Kcal/Mol)
 Vibrational temperatures:     74.27   143.56   261.06   315.72   321.49
          (Kelvin)            521.43   530.38   604.30   688.16   699.78
                              763.77   783.44   874.30   925.02   961.74
                             1072.18  1142.95  1143.91  1151.73  1190.21
                             1267.22  1272.27  1293.54  1409.16  1418.20
                             1451.58  1459.33  1518.48  1584.37  1681.55
                             1709.99  1766.30  1814.32  1860.21  1951.36
                             1985.30  2014.29  2050.70  2110.26  2169.30
                             2231.35  2315.03  2339.12  2396.84  2409.26
                             4577.33  4597.35  4617.36  4642.28  4682.04
                             4704.13

 Zero-point correction=                           0.138499 (Hartree/Particle)
 Thermal correction to Energy=                    0.138499
 Thermal correction to Enthalpy=                  0.138499
 Thermal correction to Gibbs Free Energy=         0.138499
 Sum of electronic and zero-point Energies=           -606.284071
 Sum of electronic and thermal Energies=              -606.284071
 Sum of electronic and thermal Enthalpies=            -606.284071
 Sum of electronic and thermal Free Energies=         -606.284071

                     E (Thermal)             CV                S
                      KCal/Mol        Cal/Mol-Kelvin    Cal/Mol-Kelvin
 Total                   86.910              5.962            -28.001
 Electronic               0.000              0.000              0.000
 Translational            0.000              2.981            -21.254
 Rotational               0.000              2.981             -6.747
 Vibrational             86.910              0.000              0.000

 Optimization completed.
    -- Stationary point found.
 Normal termination of Gaussian 16 at Mon Oct 14 13:41:03 2019.
