 Gaussian 16, Revision A.03,
 Gaussian 16:  ES64L-G16RevA.03 25-Dec-2016

 --------------------------------------------------------------
 #p opt freq b3lyp/6-31g(d) geom=connectivity temperature=0.001
 --------------------------------------------------------------

 ----------------------------
 Nitro quinoline n oxide plus
 ----------------------------
 Symbolic Z-matrix:
 Charge =  1 Multiplicity = 1

 SCF Done:  E(RB3LYP) =  -606.742676782     A.U. after   22 cycles
 SCF Done:  E(RB3LYP) =  -606.774005251     A.U. after   15 cycles
 SCF Done:  E(RB3LYP) =  -606.782099849     A.U. after   15 cycles
 SCF Done:  E(RB3LYP) =  -606.782223551     A.U. after   15 cycles
 SCF Done:  E(RB3LYP) =  -606.782900584     A.U. after   15 cycles
 SCF Done:  E(RB3LYP) =  -606.783381456     A.U. after   14 cycles
 SCF Done:  E(RB3LYP) =  -606.783576138     A.U. after   13 cycles
 SCF Done:  E(RB3LYP) =  -606.783851024     A.U. after   14 cycles
 SCF Done:  E(RB3LYP) =  -606.784036789     A.U. after   17 cycles
 SCF Done:  E(RB3LYP) =  -606.784250373     A.U. after   13 cycles
 SCF Done:  E(RB3LYP) =  -606.784451335     A.U. after   14 cycles
 SCF Done:  E(RB3LYP) =  -606.784466842     A.U. after   12 cycles
 SCF Done:  E(RB3LYP) =  -606.784470028     A.U. after   10 cycles
 Optimization completed.
    -- Stationary point found.
 Normal termination of Gaussian 16 at Mon Oct 14 13:40:35 2019.

 --------------------------------------------------------------------
 #P Geom=AllCheck Guess=TCheck SCRF=Check GenChk RB3LYP/6-31G(d) Freq
 --------------------------------------------------------------------

 Structure from the checkpoint file:  "10_p.chk"
 ----------------------------
 Nitro quinoline n oxide plus
 ----------------------------
 Charge =  1 Multiplicity = 1

                         Standard orientation:
 ---------------------------------------------------------------------
 Center     Atomic      Atomic             Coordinates (Angstroms)
 Number     Number       Type             X           Y           Z
 ---------------------------------------------------------------------
      1          6           0        0.274102   -0.249454    0.001595
      2          6           0        1.298906    0.757295   -0.015733
      3          7           0        0.917463    2.078510   -0.076732
      4          6           0       -0.352822    2.496087   -0.099388
      5          6           0       -1.386606    1.565140   -0.059965
      6          6           0       -1.063457    0.220797   -0.025786
      7          6           0        0.682508   -1.610391    0.071145
      8          6           0        2.021700   -1.925134    0.119480
      9          6           0        3.013988   -0.914517    0.093817
     10          6           0        2.663192    0.417192    0.026832
     11          7           0       -2.215333   -0.722451   -0.009235
     12          8           0       -3.179725   -0.370754    0.654201
     13          8           0       -2.105323   -1.743527   -0.675201
     14          1           0       -0.521268    3.565750   -0.143803
     15          1           0       -2.420176    1.887893   -0.051065
     16          1           0       -0.066154   -2.390660    0.077249
     17          1           0        2.323875   -2.965793    0.174931
     18          1           0        4.062809   -1.191434    0.129699
     19          1           0        3.420152    1.196419    0.011365
     20          1           0        1.657173    2.777566   -0.100582
 ---------------------------------------------------------------------

 SCF Done:  E(RB3LYP) =  -606.784470028     A.U. after    1 cycles

 The electronic state is 1-A.
 Alpha  occ. eigenvalues --  -19.34123 -19.34073 -14.73193 -14.62696 -10.45962
 Alpha  occ. eigenvalues --  -10.45553 -10.44927 -10.41428 -10.40510 -10.38147
 Alpha  occ. eigenvalues --  -10.37919 -10.37345 -10.36945  -1.38608  -1.21622
 Alpha  occ. eigenvalues --   -1.20824  -1.05621  -1.03319  -0.96270  -0.93635
 Alpha  occ. eigenvalues --   -0.91562  -0.84664  -0.82488  -0.79903  -0.74853
 Alpha  occ. eigenvalues --   -0.73509  -0.71670  -0.70882  -0.68441  -0.66259
 Alpha  occ. eigenvalues --   -0.64461  -0.63911  -0.63152  -0.62188  -0.61383
 Alpha  occ. eigenvalues --   -0.60470  -0.54269  -0.54158  -0.53562  -0.51796
 Alpha  occ. eigenvalues --   -0.46261  -0.45878  -0.44842  -0.44387  -0.42331
 Alpha virt. eigenvalues --   -0.28138  -0.21344  -0.21084  -0.16738  -0.11895
 Alpha virt. eigenvalues --   -0.10281  -0.06749  -0.05603  -0.02477  -0.00176
 Alpha virt. eigenvalues --    0.00347   0.00869   0.02900   0.03398   0.05367

 Mulliken charges:
               1
     1  C    0.125667
     2  C    0.348530
     3  N   -0.649564
     4  C    0.136628
     5  C   -0.178823
     6  C    0.282943
     7  C   -0.160503
     8  C   -0.114805
     9  C   -0.112033
    10  C   -0.152944
    11  N    0.375059
    12  O   -0.317456
    13  O   -0.328529
    14  H    0.256446
    15  H    0.250913
    16  H    0.224706
    17  H    0.209564
    18  H    0.210620
    19  H    0.196025
    20  H    0.397554
 Sum of Mulliken charges =   1.00000

 Dipole moment (field-independent basis, Debye):
    X=              5.9717    Y=              5.9754    Z=             -0.0912  Tot=              8.4484
 Quadrupole moment (field-independent basis, Debye-Ang):
   XX=            -51.6789   YY=            -40.3170   ZZ=            -73.5672
   XY=             -5.0446   XZ=              1.5133   YZ=             -2.8532

  Exact polarizability: 151.330 -17.190 137.144  -1.786   0.514  42.399
 Approx polarizability: 267.709 -44.071 265.677 -10.507  10.324  77.347

                      1                      2                      3
                      A                      A                      A
 Frequencies --     55.1668                99.0976               176.9318
 Red. masses --     12.9327                 5.0599                 4.1797
 Frc consts  --      0.0232                 0.0293                 0.0771
 IR Inten    --      0.5473                 0.7434                 2.2583

                      4                      5                      6
                      A                      A                      A
 Frequencies --    207.2327               210.7585               346.0371
 Red. masses --      6.4361                 5.1539                 7.1744
 Frc consts  --      0.1629                 0.1349                 0.5062
 IR Inten    --      3.9592                 2.8704                 3.6919

                      7                      8                      9
                      A                      A                      A
 Frequencies --    354.9756               406.3631               460.0898
 Red. masses --      7.2302                 4.0514                 3.7490
 Frc consts  --      0.5368                 0.3942                 0.4676
 IR Inten    --      2.3346                 0.9796                11.4151

                     10                     11                     12
                      A                      A                      A
 Frequencies --    471.2289               520.4094               536.3623
 Red. masses --      3.5729                 6.0347                 7.2881
 Frc consts  --      0.4675                 0.9629                 1.2353
 IR Inten    --      0.0841                 7.7792                 0.4401

                     13                     14                     15
                      A                      A                      A
 Frequencies --    587.7515               645.8346               670.0165
 Red. masses --      3.8137                 5.1123                 6.8981
 Frc consts  --      0.7762                 1.2564                 1.8245
 IR Inten    --      0.7895                 3.4199                13.1048

                     16                     17                     18
                      A                      A                      A
 Frequencies --    731.7194               755.6388               788.2674
 Red. masses --      2.3826                 1.8669                 3.4021
 Frc consts  --      0.7516                 0.6280                 1.2455
 IR Inten    --      9.6884                 3.2738                 8.2557

                     19                     20                     21
                      A                      A                      A
 Frequencies --    801.5616               806.2918               818.9229
 Red. masses --      5.7559                 1.3240                 5.3271
 Frc consts  --      2.1789                 0.5071                 2.1049
 IR Inten    --     14.8216               157.1870                 4.5346

                     22                     23                     24
                      A                      A                      A
 Frequencies --    880.3851               888.5095               893.5930
 Red. masses --      6.2575                 1.5289                 1.4375
 Frc consts  --      2.8576                 0.7111                 0.6763
 IR Inten    --     20.1909                 0.8149                 0.2594

                     25                     26                     27
                      A                      A                      A
 Frequencies --    984.8805               994.9229              1016.6071
 Red. masses --      1.3442                 1.3345                 6.6605
 Frc consts  --      0.7682                 0.7783                 4.0557
 IR Inten    --      3.6999                 1.2018                 5.7936

                     28                     29                     30
                      A                      A                      A
 Frequencies --   1033.6209              1056.0818              1128.3987
 Red. masses --      1.3503                 2.3885                 1.9884
 Frc consts  --      0.8500                 1.5695                 1.4917
 IR Inten    --      0.0994                 0.5422                 0.6214

                     31                     32                     33
                      A                      A                      A
 Frequencies --   1185.1378              1209.5033              1227.7063
 Red. masses --      1.5092                 1.2570                 1.9792
 Frc consts  --      1.2489                 1.0834                 1.7577
 IR Inten    --      3.8690                15.4817                 1.6607

                     34                     35                     36
                      A                      A                      A
 Frequencies --   1249.9482              1296.4117              1308.5154
 Red. masses --      1.6097                 1.9209                 1.8064
 Frc consts  --      1.4818                 1.9021                 1.8223
 IR Inten    --     13.7314                16.4566                15.7141

                     37                     38                     39
                      A                      A                      A
 Frequencies --   1390.0363              1403.0655              1429.6641
 Red. masses --     12.3974                 6.5678                 2.5631
 Frc consts  --     14.1134                 7.6178                 3.0866
 IR Inten    --    117.9387                82.1842                19.5340

                     40                     41                     42
                      A                      A                      A
 Frequencies --   1442.3763              1499.2650              1528.2344
 Red. masses --      2.3106                 2.4416                 1.9777
 Frc consts  --      2.8322                 3.2335                 2.7214
 IR Inten    --     27.8415                 2.5026                16.7916

                     43                     44                     45
                      A                      A                      A
 Frequencies --   1593.0246              1635.5345              1650.8159
 Red. masses --      3.5193                 4.7203                 4.4468
 Frc consts  --      5.2620                 7.4394                 7.1400
 IR Inten    --     13.4200               101.8072                38.3072

                     46                     47                     48
                      A                      A                      A
 Frequencies --   1670.6837              1676.3736              3205.8994
 Red. masses --      5.4637                 8.6775                 1.0913
 Frc consts  --      8.9852                14.3676                 6.6081
 IR Inten    --    140.8942                81.1487                 0.0836

                     49                     50                     51
                      A                      A                      A
 Frequencies --   3225.9038              3235.9606              3255.3830
 Red. masses --      1.0917                 1.0956                 1.0934
 Frc consts  --      6.6934                 6.7596                 6.8268
 IR Inten    --      0.1069                 0.4851                 4.4834

                     52                     53                     54
                      A                      A                      A
 Frequencies --   3265.4633              3271.4149              3546.9239
 Red. masses --      1.0971                 1.0935                 1.0793
 Frc consts  --      6.8924                 6.8952                 8.0004
 IR Inten    --     33.1376                 6.5175               133.5109

 - Thermochemistry -
 -------------------
 Temperature     0.001 Kelvin.  Pressure   1.00000 Atm.
 Atom     1 has atomic number  6 and mass  12.00000

 Molecular mass:   175.05075 amu.
 Principal axes and moments of inertia in atomic units:
                           1         2         3
     Eigenvalues --  1338.818782423.588693656.57877
           X            0.99955  -0.02990   0.00160
           Y            0.02991   0.99954  -0.00500
           Z           -0.00145   0.00504   0.99999
 This molecule is an asymmetric top.
 Rotational symmetry number  1.
 Warning -- assumption of classical behavior for rotation
           may cause significant error
 Rotational temperatures (Kelvin)      0.06469     0.03574     0.02369
 Rotational constants (GHZ):           1.34801     0.74466     0.49356
 Zero-point vibrational energy     399139.4 (Joules/Mol)
                                   95.39662 (Kcal/Mol)
 Vibrational temperatures:     79.37   142.58   254.57   298.16   303.23
          (Kelvin)            497.87   510.73   584.67   661.97   677.99
                              748.75   771.71   845.64   929.21   964.00
                             1052.78  1087.20  1134.14  1153.27  1160.07
                             1178.25  1266.68  1278.37  1285.68  1417.02
                             1431.47  1462.67  1487.15  1519.47  1623.51
                             1705.15  1740.21  1766.40  1798.40  1865.25
                             1882.66  1999.95  2018.70  2056.97  2075.26
                             2157.11  2198.79  2292.01  2353.17  2375.16
                             2403.74  2411.93  4612.57  4641.36  4655.83
                             4683.77  4698.27  4706.84  5103.23

 Zero-point correction=                           0.152024 (Hartree/Particle)
 Thermal correction to Energy=                    0.152024
 Thermal correction to Enthalpy=                  0.152024
 Thermal correction to Gibbs Free Energy=         0.152024
 Sum of electronic and zero-point Energies=           -606.632446
 Sum of electronic and thermal Energies=              -606.632446
 Sum of electronic and thermal Enthalpies=            -606.632446
 Sum of electronic and thermal Free Energies=         -606.632446

                     E (Thermal)             CV                S
                      KCal/Mol        Cal/Mol-Kelvin    Cal/Mol-Kelvin
 Total                   95.397              5.962            -27.959
 Electronic               0.000              0.000              0.000
 Translational            0.000              2.981            -21.237
 Rotational               0.000              2.981             -6.723
 Vibrational             95.397              0.000              0.000

 Optimization completed.
    -- Stationary point found.
 Normal termination of Gaussian 16 at Mon Oct 14 13:41:17 2019.
