 Gaussian 16, Revision A.03,
 Gaussian 16:  ES64L-G16RevA.03 25-Dec-2016

 --------------------------------------------------------------
 #p opt freq b3lyp/6-31g(d) geom=connectivity temperature=0.001
 --------------------------------------------------------------

 ----------------------------
 dodecyl_methyl_sulfoxide.sdf
 ----------------------------
 Symbolic Z-matrix:
 Charge =  0 Multiplicity = 1

 SCF Done:  E(RB3LYP) =  -946.252640302     A.U. after   15 cycles
 SCF Done:  E(RB3LYP) =  -946.290067320     A.U. after   11 cycles
 SCF Done:  E(RB3LYP) =  -946.321899408     A.U. after   12 cycles
 SCF Done:  E(RB3LYP) =  -946.324435422     A.U. after   11 cycles
 SCF Done:  E(RB3LYP) =  -946.324709975     A.U. after   11 cycles
 SCF Done:  E(RB3LYP) =  -946.324744868     A.U. after   11 cycles
 SCF Done:  E(RB3LYP) =  -946.324765292     A.U. after   10 cycles
 SCF Done:  E(RB3LYP) =  -946.324767823     A.U. after   10 cycles
 SCF Done:  E(RB3LYP) =  -946.324768138     A.U. after    7 cycles
 SCF Done:  E(RB3LYP) =  -946.324768157     A.U. after    7 cycles
 SCF Done:  E(RB3LYP) =  -946.324768143     A.U. after    6 cycles
 Optimization completed.
    -- Stationary point found.
 Normal termination of Gaussian 16 at Mon Oct 14 13:40:40 2019.

 --------------------------------------------------------------------
 #P Geom=AllCheck Guess=TCheck SCRF=Check GenChk RB3LYP/6-31G(d) Freq
 --------------------------------------------------------------------

 Structure from the checkpoint file:  "11.chk"
 ----------------------------
 dodecyl_methyl_sulfoxide.sdf
 ----------------------------
 Charge =  0 Multiplicity = 1

                         Standard orientation:
 ---------------------------------------------------------------------
 Center     Atomic      Atomic             Coordinates (Angstroms)
 Number     Number       Type             X           Y           Z
 ---------------------------------------------------------------------
      1          6           0       -8.593659   -0.200513    0.153454
      2          6           0       -7.290363    0.509207   -0.227408
      3          6           0       -6.034287   -0.280267    0.163270
      4          6           0       -4.724447    0.422804   -0.215234
      5          6           0       -3.468802   -0.366962    0.176411
      6          6           0       -2.159064    0.335720   -0.203853
      7          6           0       -0.904016   -0.454510    0.188851
      8          6           0        0.405533    0.246990   -0.194326
      9          6           0        1.658504   -0.545458    0.200755
     10          6           0        2.967594    0.157441   -0.192203
     11          6           0        4.202908   -0.645076    0.219935
     12         16           0        5.798550    0.009110   -0.451984
     13          6           0        5.889959    1.516354    0.594501
     14          8           0        6.888900   -0.925508    0.026713
     15          1           0       -9.470897    0.388224   -0.138321
     16          1           0       -8.670656   -1.178488   -0.337646
     17          1           0       -8.651242   -0.369802    1.235846
     18          1           0       -7.258998    1.498683    0.250744
     19          1           0       -7.278070    0.695605   -1.310811
     20          1           0       -6.066484   -1.271029   -0.314370
     21          1           0       -6.046851   -0.466910    1.247623
     22          1           0       -4.693397    1.413731    0.261948
     23          1           0       -4.712663    0.608695   -1.299609
     24          1           0       -3.500184   -1.358178   -0.299925
     25          1           0       -3.479836   -0.551941    1.260894
     26          1           0       -2.127398    1.327246    0.271912
     27          1           0       -2.147429    0.519771   -1.288462
     28          1           0       -0.936185   -1.446484   -0.285557
     29          1           0       -0.914140   -0.636941    1.273677
     30          1           0        0.438541    1.239329    0.279428
     31          1           0        0.417455    0.427590   -1.279340
     32          1           0        1.626680   -1.538371   -0.270061
     33          1           0        1.652193   -0.721745    1.285998
     34          1           0        2.991235    1.152952    0.270304
     35          1           0        2.980353    0.318287   -1.279322
     36          1           0        4.163828   -1.662888   -0.185001
     37          1           0        4.314920   -0.726471    1.307666
     38          1           0        6.843785    1.998298    0.366574
     39          1           0        5.067588    2.197903    0.359292
     40          1           0        5.870697    1.226875    1.649630
 ---------------------------------------------------------------------

 SCF Done:  E(RB3LYP) =  -946.324768143     A.U. after    1 cycles

 The electronic state is 1-A.
 Alpha  occ. eigenvalues --  -88.97761 -19.09403 -10.21219 -10.20995 -10.20239
 Alpha  occ. eigenvalues --  -10.19252 -10.18682 -10.18313 -10.18087 -10.17916
 Alpha  occ. eigenvalues --  -10.17882 -10.17804 -10.17706 -10.17236  -8.02490
 Alpha  occ. eigenvalues --   -5.98885  -5.98807  -5.98226  -0.99046  -0.82320
 Alpha  occ. eigenvalues --   -0.80768  -0.78991  -0.76802  -0.74550  -0.71654
 Alpha  occ. eigenvalues --   -0.68116  -0.64336  -0.60740  -0.58941  -0.58347
 Alpha  occ. eigenvalues --   -0.57635  -0.57231  -0.49650  -0.48175  -0.46581
 Alpha  occ. eigenvalues --   -0.45897  -0.44907  -0.44093  -0.43142  -0.42958
 Alpha  occ. eigenvalues --   -0.41926  -0.41337  -0.40424  -0.39829  -0.38781
 Alpha  occ. eigenvalues --   -0.38219  -0.37640  -0.36210  -0.35701  -0.34933
 Alpha  occ. eigenvalues --   -0.34258  -0.34182  -0.33898  -0.33110  -0.33105
 Alpha  occ. eigenvalues --   -0.32400  -0.32294  -0.32048  -0.29927  -0.25209
 Alpha  occ. eigenvalues --   -0.21643
 Alpha virt. eigenvalues --    0.04362   0.04955   0.07599   0.08533   0.09140
 Alpha virt. eigenvalues --    0.09396   0.10197   0.10654   0.11300   0.11760
 Alpha virt. eigenvalues --    0.12493   0.12799   0.13352   0.14311   0.14705

 Mulliken charges:
               1
     1  C   -0.441372
     2  C   -0.246716
     3  C   -0.245631
     4  C   -0.252550
     5  C   -0.253132
     6  C   -0.253158
     7  C   -0.253541
     8  C   -0.254309
     9  C   -0.253021
    10  C   -0.280335
    11  C   -0.462010
    12  S    0.754105
    13  C   -0.632305
    14  O   -0.635602
    15  H    0.141658
    16  H    0.141263
    17  H    0.141122
    18  H    0.129699
    19  H    0.129887
    20  H    0.126503
    21  H    0.126279
    22  H    0.126513
    23  H    0.126852
    24  H    0.127664
    25  H    0.127258
    26  H    0.127099
    27  H    0.127850
    28  H    0.129677
    29  H    0.128813
    30  H    0.128668
    31  H    0.130845
    32  H    0.136960
    33  H    0.135220
    34  H    0.141724
    35  H    0.150853
    36  H    0.185538
    37  H    0.177592
    38  H    0.197542
    39  H    0.175357
    40  H    0.191140
 Sum of Mulliken charges =  -0.00000

 Dipole moment (field-independent basis, Debye):
    X=             -3.7882    Y=              2.3084    Z=              0.3918  Tot=              4.4534
 Quadrupole moment (field-independent basis, Debye-Ang):
   XX=           -138.9683   YY=            -98.0490   ZZ=            -97.2816
   XY=             16.8981   XZ=              2.3758   YZ=              1.5386

  Exact polarizability: 203.314   0.866 134.769  -0.011   1.672 123.064
 Approx polarizability: 217.950  -7.172 207.682  -0.288   4.182 190.712

                      1                      2                      3
                      A                      A                      A
 Frequencies --     17.6205                26.5958                28.6113
 Red. masses --      4.3179                 2.0954                 3.9842
 Frc consts  --      0.0008                 0.0009                 0.0019
 IR Inten    --      0.6446                 1.1781                 1.2569

                      4                      5                      6
                      A                      A                      A
 Frequencies --     47.2951                62.5950                77.5548
 Red. masses --      3.6616                 1.6651                 3.8926
 Frc consts  --      0.0048                 0.0038                 0.0138
 IR Inten    --      1.2388                 0.7514                 1.7614

                      7                      8                      9
                      A                      A                      A
 Frequencies --     86.3717               102.1107               128.7844
 Red. masses --      2.9029                 1.7021                 2.2713
 Frc consts  --      0.0128                 0.0105                 0.0222
 IR Inten    --      0.9162                 0.1942                 0.2433

                     10                     11                     12
                      A                      A                      A
 Frequencies --    137.7923               142.8583               152.4882
 Red. masses --      2.5407                 2.4882                 4.7889
 Frc consts  --      0.0284                 0.0299                 0.0656
 IR Inten    --      0.4174                 0.9598                 1.0210

                     13                     14                     15
                      A                      A                      A
 Frequencies --    164.0087               167.9776               204.3705
 Red. masses --      2.0278                 1.9475                 1.1863
 Frc consts  --      0.0321                 0.0324                 0.0292
 IR Inten    --      0.0404                 0.0065                 1.0657

                     16                     17                     18
                      A                      A                      A
 Frequencies --    223.1290               249.9254               274.2970
 Red. masses --      3.6482                 1.1193                 3.2971
 Frc consts  --      0.1070                 0.0412                 0.1462
 IR Inten    --      2.9860                 0.0011                 0.8194

                     19                     20                     21
                      A                      A                      A
 Frequencies --    301.1502               316.0813               350.2024
 Red. masses --      3.8797                 3.6651                 3.1019
 Frc consts  --      0.2073                 0.2157                 0.2241
 IR Inten    --      2.2281                 2.8421                 4.6830

                     22                     23                     24
                      A                      A                      A
 Frequencies --    407.8506               421.9414               491.6116
 Red. masses --      3.1835                 3.6989                 3.0132
 Frc consts  --      0.3120                 0.3880                 0.4291
 IR Inten    --      4.3832                 0.2590                 1.5406

                     25                     26                     27
                      A                      A                      A
 Frequencies --    506.3350               642.8892               734.2939
 Red. masses --      3.0820                 4.4302                 3.5424
 Frc consts  --      0.4655                 1.0788                 1.1254
 IR Inten    --      0.2112                10.6880                15.3380

                     28                     29                     30
                      A                      A                      A
 Frequencies --    737.8488               738.4626               741.6716
 Red. masses --      1.0638                 1.1252                 1.1255
 Frc consts  --      0.3412                 0.3615                 0.3648
 IR Inten    --      4.2443                 4.4376                 4.2748

                     31                     32                     33
                      A                      A                      A
 Frequencies --    754.0360               780.9759               823.6256
 Red. masses --      1.1213                 1.1643                 1.2111
 Frc consts  --      0.3756                 0.4184                 0.4840
 IR Inten    --      0.2361                 1.4532                 0.0784

                     34                     35                     36
                      A                      A                      A
 Frequencies --    876.9502               904.7453               929.0203
 Red. masses --      1.2393                 1.9723                 1.2296
 Frc consts  --      0.5615                 0.9512                 0.6253
 IR Inten    --      0.6982                 1.5529                 1.3913

                     37                     38                     39
                      A                      A                      A
 Frequencies --    957.3379               965.9148               991.2474
 Red. masses --      1.4672                 1.2422                 4.7289
 Frc consts  --      0.7922                 0.6828                 2.7376
 IR Inten    --      6.7052                 5.7796                 0.1918

                     40                     41                     42
                      A                      A                      A
 Frequencies --   1002.4940              1010.1551              1028.9092
 Red. masses --      4.2161                 1.2356                 3.5679
 Frc consts  --      2.4965                 0.7428                 2.2254
 IR Inten    --      0.2210                 5.4234                 0.4401

                     43                     44                     45
                      A                      A                      A
 Frequencies --   1039.9972              1055.5881              1058.3427
 Red. masses --      3.2782                 1.9315                 1.3896
 Frc consts  --      2.0891                 1.2680                 0.9170
 IR Inten    --      1.2451                 6.6190                 0.5042

                     46                     47                     48
                      A                      A                      A
 Frequencies --   1069.1658              1073.0839              1074.5928
 Red. masses --      2.4232                 2.1889                 2.3531
 Frc consts  --      1.6321                 1.4850                 1.6009
 IR Inten    --      2.8779                 0.8299                 0.2971

                     49                     50                     51
                      A                      A                      A
 Frequencies --   1083.0433              1096.0989              1110.1846
 Red. masses --      5.8940                 2.8683                 1.2558
 Frc consts  --      4.0733                 2.0304                 0.9119
 IR Inten    --    122.1914                 5.9982                 4.5430

                     52                     53                     54
                      A                      A                      A
 Frequencies --   1149.8370              1222.4756              1230.5053
 Red. masses --      2.7078                 1.8839                 1.2440
 Frc consts  --      2.1093                 1.6588                 1.1098
 IR Inten    --      3.8731                 0.0948                 1.4221

                     55                     56                     57
                      A                      A                      A
 Frequencies --   1244.2115              1258.7132              1274.4588
 Red. masses --      1.5699                 1.3019                 1.3898
 Frc consts  --      1.4319                 1.2153                 1.3301
 IR Inten    --      0.2590                 3.7603                 0.4714

                     58                     59                     60
                      A                      A                      A
 Frequencies --   1291.7600              1304.8635              1326.5935
 Red. masses --      1.3018                 1.2835                 1.3111
 Frc consts  --      1.2798                 1.2876                 1.3595
 IR Inten    --      0.8239                 0.1537                 0.6380

                     61                     62                     63
                      A                      A                      A
 Frequencies --   1330.2240              1338.6841              1346.3770
 Red. masses --      1.2067                 1.0201                 1.0764
 Frc consts  --      1.2580                 1.0771                 1.1497
 IR Inten    --      0.5214                 0.0993                 0.4159

                     64                     65                     66
                      A                      A                      A
 Frequencies --   1347.0049              1354.5581              1355.3993
 Red. masses --      1.1090                 1.1136                 1.1090
 Frc consts  --      1.1856                 1.2039                 1.2004
 IR Inten    --      0.0769                 0.4488                 0.7981

                     67                     68                     69
                      A                      A                      A
 Frequencies --   1359.9656              1363.1093              1389.6662
 Red. masses --      1.2530                 1.2381                 1.4097
 Frc consts  --      1.3654                 1.3554                 1.6039
 IR Inten    --      1.3222                 3.1659                 0.1310

                     70                     71                     72
                      A                      A                      A
 Frequencies --   1410.5781              1422.3569              1426.2566
 Red. masses --      1.4744                 1.5734                 1.6466
 Frc consts  --      1.7284                 1.8755                 1.9735
 IR Inten    --      1.4867                 0.0723                 0.1099

                     73                     74                     75
                      A                      A                      A
 Frequencies --   1427.3306              1441.6159              1478.2115
 Red. masses --      1.6196                 1.2506                 1.0517
 Frc consts  --      1.9441                 1.5314                 1.3540
 IR Inten    --      0.4012                 1.0093                 9.4590

                     76                     77                     78
                      A                      A                      A
 Frequencies --   1491.4696              1503.3037              1512.6509
 Red. masses --      1.0726                 1.0716                 1.0760
 Frc consts  --      1.4058                 1.4268                 1.4505
 IR Inten    --      1.3509                10.7845                 0.1969

                     79                     80                     81
                      A                      A                      A
 Frequencies --   1513.0120              1515.4597              1516.5064
 Red. masses --      1.0766                 1.0739                 1.0730
 Frc consts  --      1.4521                 1.4532                 1.4540
 IR Inten    --      0.1102                 0.0405                 0.2474

                     82                     83                     84
                      A                      A                      A
 Frequencies --   1518.7717              1524.1236              1529.9700
 Red. masses --      1.0766                 1.0831                 1.0411
 Frc consts  --      1.4631                 1.4824                 1.4358
 IR Inten    --      0.8714                 0.3925                 5.8205

                     85                     86                     87
                      A                      A                      A
 Frequencies --   1530.6362              1536.8764              1541.9170
 Red. masses --      1.0873                 1.0906                 1.0937
 Frc consts  --      1.5008                 1.5177                 1.5320
 IR Inten    --      0.4982                 1.2292                 0.2521

                     88                     89                     90
                      A                      A                      A
 Frequencies --   1545.2230              3009.4738              3010.3135
 Red. masses --      1.0971                 1.0581                 1.0581
 Frc consts  --      1.5434                 5.6461                 5.6495
 IR Inten    --      5.5713                 0.2767                 0.1133

                     91                     92                     93
                      A                      A                      A
 Frequencies --   3012.5796              3013.6939              3017.3239
 Red. masses --      1.0587                 1.0586                 1.0594
 Frc consts  --      5.6612                 5.6649                 5.6827
 IR Inten    --      1.1965                 0.6480                 0.1859

                     94                     95                     96
                      A                      A                      A
 Frequencies --   3022.1677              3026.0478              3028.6078
 Red. masses --      1.0595                 1.0598                 1.0601
 Frc consts  --      5.7014                 5.7179                 5.7292
 IR Inten    --      3.9200                 1.6188               166.1840

                     97                     98                     99
                      A                      A                      A
 Frequencies --   3030.3558              3032.3670              3035.6875
 Red. masses --      1.0992                 1.0999                 1.0600
 Frc consts  --      5.9473                 5.9592                 5.7555
 IR Inten    --      0.8197                 0.1234                74.5685

                    100                    101                    102
                      A                      A                      A
 Frequencies --   3036.4357              3040.9839              3043.0068
 Red. masses --      1.1013                 1.0359                 1.1030
 Frc consts  --      5.9827                 5.6440                 6.0179
 IR Inten    --      0.5696                43.9818                 0.0794

                    103                    104                    105
                      A                      A                      A
 Frequencies --   3051.1640              3058.8797              3060.8488
 Red. masses --      1.1037                 1.1000                 1.0568
 Frc consts  --      6.0541                 6.0643                 5.8337
 IR Inten    --      0.2411                 2.9569                12.5268

                    106                    107                    108
                      A                      A                      A
 Frequencies --   3063.1134              3067.4005              3074.8657
 Red. masses --      1.0392                 1.1027                 1.1053
 Frc consts  --      5.7446                 6.1130                 6.1572
 IR Inten    --      8.3609                 4.6298                88.1886

                    109                    110                    111
                      A                      A                      A
 Frequencies --   3081.9569              3105.4956              3110.4224
 Red. masses --      1.1053                 1.1028                 1.1019
 Frc consts  --      6.1855                 6.2664                 6.2809
 IR Inten    --    154.5702                69.2722                44.9240

                    112                    113                    114
                      A                      A                      A
 Frequencies --   3117.0387              3160.5903              3168.2401
 Red. masses --      1.1070                 1.1067                 1.1051
 Frc consts  --      6.3370                 6.5136                 6.5355
 IR Inten    --     21.6158                 7.1937                 5.9370

 - Thermochemistry -
 -------------------
 Temperature     0.001 Kelvin.  Pressure   1.00000 Atm.
 Atom     1 has atomic number  6 and mass  12.00000

 Molecular mass:   218.17044 amu.
 Principal axes and moments of inertia in atomic units:
                           1         2         3
     Eigenvalues --   485.21757********************
           X            0.99999   0.00395   0.00263
           Y           -0.00395   0.99999  -0.00087
           Z           -0.00263   0.00086   1.00000
 This molecule is an asymmetric top.
 Rotational symmetry number  1.
 Warning -- assumption of classical behavior for rotation
           may cause significant error
 Rotational temperatures (Kelvin)      0.17851     0.00422     0.00418
 Rotational constants (GHZ):           3.71945     0.08800     0.08709
 Zero-point vibrational energy     961342.8 (Joules/Mol)
                                  229.76645 (Kcal/Mol)
 Vibrational temperatures:     25.35    38.27    41.17    68.05    90.06
          (Kelvin)            111.58   124.27   146.91   185.29   198.25
                              205.54   219.40   235.97   241.68   294.04
                              321.03   359.59   394.65   433.29   454.77
                              503.86   586.81   607.08   707.32   728.50
                              924.97  1056.49  1061.60  1062.48  1067.10
                             1084.89  1123.65  1185.01  1261.74  1301.73
                             1336.65  1377.40  1389.74  1426.18  1442.37
                             1453.39  1480.37  1496.32  1518.76  1522.72
                             1538.29  1543.93  1546.10  1558.26  1577.04
                             1597.31  1654.36  1758.87  1770.42  1790.14
                             1811.01  1833.66  1858.55  1877.41  1908.67
                             1913.90  1926.07  1937.14  1938.04  1948.91
                             1950.12  1956.69  1961.21  1999.42  2029.51
                             2046.45  2052.07  2053.61  2074.16  2126.82
                             2145.89  2162.92  2176.37  2176.89  2180.41
                             2181.91  2185.17  2192.87  2201.29  2202.24
                             2211.22  2218.47  2223.23  4329.96  4331.17
                             4334.43  4336.03  4341.26  4348.23  4353.81
                             4357.49  4360.01  4362.90  4367.68  4368.75
                             4375.30  4378.21  4389.94  4401.05  4403.88
                             4407.14  4413.31  4424.05  4434.25  4468.12
                             4475.20  4484.72  4547.38  4558.39

 Zero-point correction=                           0.366156 (Hartree/Particle)
 Thermal correction to Energy=                    0.366156
 Thermal correction to Enthalpy=                  0.366156
 Thermal correction to Gibbs Free Energy=         0.366156
 Sum of electronic and zero-point Energies=           -945.958612
 Sum of electronic and thermal Energies=              -945.958612
 Sum of electronic and thermal Enthalpies=            -945.958612
 Sum of electronic and thermal Free Energies=         -945.958612

                     E (Thermal)             CV                S
                      KCal/Mol        Cal/Mol-Kelvin    Cal/Mol-Kelvin
 Total                  229.766              5.962            -24.466
 Electronic               0.000              0.000              0.000
 Translational            0.000              2.981            -20.580
 Rotational               0.000              2.981             -3.886
 Vibrational            229.766              0.000              0.000

 Optimization completed.
    -- Stationary point found.
 Normal termination of Gaussian 16 at Mon Oct 14 13:41:53 2019.
