 Gaussian 16, Revision A.03,
 Gaussian 16:  ES64L-G16RevA.03 25-Dec-2016

 --------------------------------------------------------------
 #p opt freq b3lyp/6-31g(d) geom=connectivity temperature=0.001
 --------------------------------------------------------------

 ----------------------------
 dodecyl_methyl_sulfoxide.sdf
 ----------------------------
 Symbolic Z-matrix:
 Charge =  1 Multiplicity = 1

 SCF Done:  E(RB3LYP) =  -946.618651392     A.U. after   15 cycles
 SCF Done:  E(RB3LYP) =  -946.655514114     A.U. after   11 cycles
 SCF Done:  E(RB3LYP) =  -946.686253607     A.U. after   11 cycles
 SCF Done:  E(RB3LYP) =  -946.688876517     A.U. after   11 cycles
 SCF Done:  E(RB3LYP) =  -946.689428567     A.U. after   10 cycles
 SCF Done:  E(RB3LYP) =  -946.689684622     A.U. after   10 cycles
 SCF Done:  E(RB3LYP) =  -946.689859704     A.U. after   10 cycles
 SCF Done:  E(RB3LYP) =  -946.689984719     A.U. after   10 cycles
 SCF Done:  E(RB3LYP) =  -946.690025004     A.U. after   10 cycles
 SCF Done:  E(RB3LYP) =  -946.690029221     A.U. after    8 cycles
 SCF Done:  E(RB3LYP) =  -946.690029717     A.U. after    7 cycles
 SCF Done:  E(RB3LYP) =  -946.690029741     A.U. after    6 cycles
 Optimization completed.
    -- Stationary point found.
 Normal termination of Gaussian 16 at Mon Oct 14 13:40:58 2019.

 --------------------------------------------------------------------
 #P Geom=AllCheck Guess=TCheck SCRF=Check GenChk RB3LYP/6-31G(d) Freq
 --------------------------------------------------------------------

 Structure from the checkpoint file:  "11_p.chk"
 ----------------------------
 dodecyl_methyl_sulfoxide.sdf
 ----------------------------
 Charge =  1 Multiplicity = 1

                         Standard orientation:
 ---------------------------------------------------------------------
 Center     Atomic      Atomic             Coordinates (Angstroms)
 Number     Number       Type             X           Y           Z
 ---------------------------------------------------------------------
      1          6           0       -8.638559   -0.217488    0.175763
      2          6           0       -7.339582    0.517054   -0.170541
      3          6           0       -6.080325   -0.294087    0.161376
      4          6           0       -4.774865    0.434282   -0.183035
      5          6           0       -3.516486   -0.377783    0.150138
      6          6           0       -2.211649    0.351082   -0.196858
      7          6           0       -0.954793   -0.462982    0.138580
      8          6           0        0.348509    0.267315   -0.213786
      9          6           0        1.600523   -0.553207    0.127124
     10          6           0        2.902216    0.186129   -0.241146
     11          6           0        4.121071   -0.664152    0.142706
     12         16           0        5.686412    0.080716   -0.447459
     13          6           0        5.887970    1.530188    0.613677
     14          8           0        6.794675   -0.923837    0.239110
     15          1           0       -9.517450    0.387503   -0.072860
     16          1           0       -8.718825   -1.162896   -0.374622
     17          1           0       -8.688373   -0.452715    1.245971
     18          1           0       -7.305238    1.474777    0.368008
     19          1           0       -7.335397    0.769815   -1.240369
     20          1           0       -6.114706   -1.253001   -0.376921
     21          1           0       -6.084130   -0.547219    1.232071
     22          1           0       -4.740848    1.393278    0.354904
     23          1           0       -4.771036    0.686486   -1.253813
     24          1           0       -3.549877   -1.337118   -0.386913
     25          1           0       -3.518334   -0.628625    1.221105
     26          1           0       -2.176561    1.310605    0.339640
     27          1           0       -2.207531    0.600216   -1.268114
     28          1           0       -0.988524   -1.423002   -0.396453
     29          1           0       -0.954805   -0.709239    1.210250
     30          1           0        0.385878    1.227231    0.320862
     31          1           0        0.353676    0.509654   -1.286022
     32          1           0        1.568685   -1.513637   -0.404668
     33          1           0        1.607132   -0.787847    1.200235
     34          1           0        2.930514    1.149628    0.281682
     35          1           0        2.909998    0.395161   -1.318565
     36          1           0        4.101641   -1.643139   -0.348143
     37          1           0        4.228102   -0.809614    1.222619
     38          1           0        6.868423    1.958359    0.393702
     39          1           0        5.103503    2.245907    0.352826
     40          1           0        5.817525    1.228028    1.661444
     41          1           0        7.392390   -1.267467   -0.455377
 ---------------------------------------------------------------------

 SCF Done:  E(RB3LYP) =  -946.690029741     A.U. after    1 cycles

 The electronic state is 1-A.
 Alpha  occ. eigenvalues --  -89.20417 -19.40218 -10.40984 -10.40838 -10.35312
 Alpha  occ. eigenvalues --  -10.31418 -10.28664 -10.26679 -10.25250 -10.24144
 Alpha  occ. eigenvalues --  -10.23307 -10.22634 -10.22356 -10.21332  -8.25571
 Alpha  occ. eigenvalues --   -6.22157  -6.21677  -6.21181  -1.26908  -1.03341
 Alpha  occ. eigenvalues --   -0.95217  -0.90177  -0.87292  -0.85164  -0.82835
 Alpha  occ. eigenvalues --   -0.79976  -0.76795  -0.74108  -0.72799  -0.69890
 Alpha  occ. eigenvalues --   -0.66783  -0.66635  -0.65445  -0.63904  -0.63187
 Alpha  occ. eigenvalues --   -0.62208  -0.62013  -0.59844  -0.57944  -0.57017
 Alpha  occ. eigenvalues --   -0.54625  -0.53986  -0.52484  -0.51707  -0.50650
 Alpha  occ. eigenvalues --   -0.50082  -0.49453  -0.47597  -0.47276  -0.46644
 Alpha  occ. eigenvalues --   -0.45004  -0.44626  -0.42496  -0.42044  -0.41653
 Alpha  occ. eigenvalues --   -0.40241  -0.39479  -0.38316  -0.37396  -0.36851
 Alpha  occ. eigenvalues --   -0.35784
 Alpha virt. eigenvalues --   -0.22419  -0.16444  -0.12219  -0.09732  -0.06494
 Alpha virt. eigenvalues --   -0.05100  -0.03917  -0.02776  -0.01609  -0.00751
 Alpha virt. eigenvalues --    0.01689   0.02619   0.02747   0.04076   0.04509

 Mulliken charges:
               1
     1  C   -0.442616
     2  C   -0.248865
     3  C   -0.247593
     4  C   -0.254841
     5  C   -0.256164
     6  C   -0.257366
     7  C   -0.259527
     8  C   -0.262462
     9  C   -0.265686
    10  C   -0.311650
    11  C   -0.466378
    12  S    0.807828
    13  C   -0.631172
    14  O   -0.628730
    15  H    0.149033
    16  H    0.143817
    17  H    0.143743
    18  H    0.132233
    19  H    0.132363
    20  H    0.129281
    21  H    0.129157
    22  H    0.130016
    23  H    0.130276
    24  H    0.132364
    25  H    0.132128
    26  H    0.133550
    27  H    0.134227
    28  H    0.139095
    29  H    0.138564
    30  H    0.142097
    31  H    0.144471
    32  H    0.158944
    33  H    0.157740
    34  H    0.171955
    35  H    0.184593
    36  H    0.243185
    37  H    0.241578
    38  H    0.262205
    39  H    0.253275
    40  H    0.257287
    41  H    0.478045
 Sum of Mulliken charges =   1.00000

 Dipole moment (field-independent basis, Debye):
    X=             23.2562    Y=              0.6298    Z=             -0.6592  Tot=             23.2741
 Quadrupole moment (field-independent basis, Debye-Ang):
   XX=             53.0244   YY=            -88.5924   ZZ=            -93.2931
   XY=              2.9716   XZ=             -5.6474   YZ=              3.8776

  Exact polarizability: 210.141   0.510 132.104  -0.189   1.871 120.993
 Approx polarizability: 218.826  -2.898 199.717   0.236   3.386 188.781

                      1                      2                      3
                      A                      A                      A
 Frequencies --     16.7110                26.3372                28.4487
 Red. masses --      4.0178                 2.0794                 3.8349
 Frc consts  --      0.0007                 0.0008                 0.0018
 IR Inten    --      0.5918                 0.1373                 0.6190

                      4                      5                      6
                      A                      A                      A
 Frequencies --     46.8604                63.1487                76.0400
 Red. masses --      3.4381                 1.7384                 3.7685
 Frc consts  --      0.0044                 0.0041                 0.0128
 IR Inten    --      0.0158                 0.1760                 1.0306

                      7                      8                      9
                      A                      A                      A
 Frequencies --     85.7453               101.9089               126.6987
 Red. masses --      2.6068                 1.8222                 2.1181
 Frc consts  --      0.0113                 0.0111                 0.0200
 IR Inten    --      0.1091                 0.0449                 0.0949

                     10                     11                     12
                      A                      A                      A
 Frequencies --    135.8801               139.4596               147.9884
 Red. masses --      3.4780                 2.0963                 4.8885
 Frc consts  --      0.0378                 0.0240                 0.0631
 IR Inten    --      4.2728                 1.8268                 2.1817

                     13                     14                     15
                      A                      A                      A
 Frequencies --    162.3649               166.9384               186.1650
 Red. masses --      1.9528                 1.9926                 1.2043
 Frc consts  --      0.0303                 0.0327                 0.0246
 IR Inten    --      0.1405                 0.0643                 1.9139

                     16                     17                     18
                      A                      A                      A
 Frequencies --    201.9028               230.2298               249.6652
 Red. masses --      3.0435                 2.3823                 1.1194
 Frc consts  --      0.0731                 0.0744                 0.0411
 IR Inten    --     37.2354                27.8397                 0.0011

                     19                     20                     21
                      A                      A                      A
 Frequencies --    276.3866               306.5963               319.6876
 Red. masses --      2.7066                 4.0071                 3.0398
 Frc consts  --      0.1218                 0.2219                 0.1830
 IR Inten    --      7.7039                 2.7263                 4.6610

                     22                     23                     24
                      A                      A                      A
 Frequencies --    346.3785               399.3194               420.3698
 Red. masses --      1.5371                 2.8947                 3.4915
 Frc consts  --      0.1087                 0.2720                 0.3635
 IR Inten    --     27.1655                 2.6221                 0.8594

                     25                     26                     27
                      A                      A                      A
 Frequencies --    488.8576               504.9161               660.8893
 Red. masses --      3.0130                 3.0677                 4.8051
 Frc consts  --      0.4242                 0.4608                 1.2365
 IR Inten    --      0.9292                 0.5890                 1.7198

                     28                     29                     30
                      A                      A                      A
 Frequencies --    718.7289               738.4058               740.3206
 Red. masses --      5.6185                 1.0592                 1.0661
 Frc consts  --      1.7100                 0.3403                 0.3443
 IR Inten    --      0.3909                 4.9133                 1.3877

                     31                     32                     33
                      A                      A                      A
 Frequencies --    745.5305               757.5170               783.6394
 Red. masses --      1.0864                 1.1212                 1.1638
 Frc consts  --      0.3558                 0.3791                 0.4211
 IR Inten    --      4.1954                 0.4041                 1.1969

                     34                     35                     36
                      A                      A                      A
 Frequencies --    810.8406               826.4325               882.2030
 Red. masses --     13.5223                 1.2104                 1.2401
 Frc consts  --      5.2381                 0.4871                 0.5687
 IR Inten    --     85.8802                 0.2126                 0.6065

                     37                     38                     39
                      A                      A                      A
 Frequencies --    905.8396               941.7038               986.0859
 Red. masses --      1.9758                 1.2399                 2.5656
 Frc consts  --      0.9552                 0.6478                 1.4699
 IR Inten    --      1.0993                 0.4760                 3.5255

                     40                     41                     42
                      A                      A                      A
 Frequencies --    991.1617               993.4125              1004.6133
 Red. masses --      3.1236                 1.7763                 1.3645
 Frc consts  --      1.8080                 1.0328                 0.8114
 IR Inten    --      2.8907                 0.2096                 3.4996

                     43                     44                     45
                      A                      A                      A
 Frequencies --   1018.2019              1021.3230              1032.8133
 Red. masses --      1.6156                 2.3868                 2.8269
 Frc consts  --      0.9868                 1.4669                 1.7767
 IR Inten    --      1.0929                 4.9337                 2.1027

                     46                     47                     48
                      A                      A                      A
 Frequencies --   1046.8340              1061.4539              1064.2083
 Red. masses --      3.0697                 1.1185                 2.5715
 Frc consts  --      1.9820                 0.7425                 1.7159
 IR Inten    --      0.8126                 1.2519                 0.4211

                     49                     50                     51
                      A                      A                      A
 Frequencies --   1071.8263              1073.8761              1093.0975
 Red. masses --      2.2922                 2.3283                 3.0068
 Frc consts  --      1.5515                 1.5819                 2.1168
 IR Inten    --      0.0671                 0.2437                 3.3277

                     52                     53                     54
                      A                      A                      A
 Frequencies --   1136.8308              1149.4549              1221.3063
 Red. masses --      1.1930                 2.7091                 1.8095
 Frc consts  --      0.9084                 2.1089                 1.5902
 IR Inten    --     11.9646                 7.7891                 6.1302

                     55                     56                     57
                      A                      A                      A
 Frequencies --   1230.4084              1241.3565              1246.7189
 Red. masses --      1.2044                 1.2812                 1.4136
 Frc consts  --      1.0743                 1.1632                 1.2945
 IR Inten    --     57.7868                15.2414                14.9397

                     58                     59                     60
                      A                      A                      A
 Frequencies --   1267.3882              1275.9745              1296.8335
 Red. masses --      1.2572                 1.3659                 1.2766
 Frc consts  --      1.1898                 1.3103                 1.2650
 IR Inten    --     10.2659                 0.7731                 4.6491

                     61                     62                     63
                      A                      A                      A
 Frequencies --   1306.2961              1329.3360              1331.4845
 Red. masses --      1.2709                 1.2943                 1.1965
 Frc consts  --      1.2777                 1.3476                 1.2498
 IR Inten    --      0.1990                 1.3597                 0.1564

                     64                     65                     66
                      A                      A                      A
 Frequencies --   1340.3487              1348.5270              1348.8127
 Red. masses --      1.0195                 1.0571                 1.1191
 Frc consts  --      1.0792                 1.1326                 1.1996
 IR Inten    --      2.1607                 0.2293                 0.0932

                     67                     68                     69
                      A                      A                      A
 Frequencies --   1357.1208              1358.3636              1360.1444
 Red. masses --      1.0876                 1.1071                 1.3191
 Frc consts  --      1.1802                 1.2035                 1.4379
 IR Inten    --      0.4314                 0.0472                 5.6632

                     70                     71                     72
                      A                      A                      A
 Frequencies --   1385.1100              1389.9098              1405.0791
 Red. masses --      1.3528                 1.1695                 1.4176
 Frc consts  --      1.5291                 1.3312                 1.6490
 IR Inten    --      1.6039                 5.0012                 2.9772

                     73                     74                     75
                      A                      A                      A
 Frequencies --   1418.5681              1425.9041              1427.0969
 Red. masses --      1.5170                 1.5978                 1.6235
 Frc consts  --      1.7986                 1.9141                 1.9480
 IR Inten    --      0.2129                 0.0109                 0.5100

                     76                     77                     78
                      A                      A                      A
 Frequencies --   1443.2034              1465.7322              1473.8692
 Red. masses --      1.2474                 1.0492                 1.0552
 Frc consts  --      1.5308                 1.3281                 1.3505
 IR Inten    --      1.1549                12.7947                10.3272

                     79                     80                     81
                      A                      A                      A
 Frequencies --   1489.3644              1512.5226              1512.9516
 Red. masses --      1.0734                 1.0758                 1.0767
 Frc consts  --      1.4028                 1.4500                 1.4521
 IR Inten    --     26.6222                 1.3244                 0.3812

                     82                     83                     84
                      A                      A                      A
 Frequencies --   1515.0338              1516.3432              1518.3144
 Red. masses --      1.0731                 1.0732                 1.0752
 Frc consts  --      1.4512                 1.4539                 1.4603
 IR Inten    --      2.0886                 2.3303                 4.0186

                     85                     86                     87
                      A                      A                      A
 Frequencies --   1523.4050              1529.6816              1530.2401
 Red. masses --      1.0827                 1.0871                 1.0411
 Frc consts  --      1.4804                 1.4988                 1.4364
 IR Inten    --      0.5935                 0.9561                 6.6260

                     88                     89                     90
                      A                      A                      A
 Frequencies --   1535.8455              1541.1202              1544.8522
 Red. masses --      1.0910                 1.0940                 1.0971
 Frc consts  --      1.5163                 1.5309                 1.5426
 IR Inten    --      2.2552                 0.5733                 6.8958

                     91                     92                     93
                      A                      A                      A
 Frequencies --   3012.1085              3013.4643              3016.3819
 Red. masses --      1.0582                 1.0583                 1.0588
 Frc consts  --      5.6565                 5.6623                 5.6759
 IR Inten    --      0.5633                 0.4152                 0.6118

                     94                     95                     96
                      A                      A                      A
 Frequencies --   3019.5026              3023.2065              3027.9506
 Red. masses --      1.0588                 1.0594                 1.0598
 Frc consts  --      5.6877                 5.7046                 5.7249
 IR Inten    --      1.2002                 1.0495                 5.3548

                     97                     98                     99
                      A                      A                      A
 Frequencies --   3031.0511              3033.4426              3037.5835
 Red. masses --      1.0596                 1.0998                 1.0996
 Frc consts  --      5.7357                 5.9629                 5.9776
 IR Inten    --    130.8464                 0.1242                 1.2242

                    100                    101                    102
                      A                      A                      A
 Frequencies --   3038.0748              3043.6760              3043.9124
 Red. masses --      1.0603                 1.1022                 1.0362
 Frc consts  --      5.7661                 6.0160                 5.6566
 IR Inten    --     48.9949                 0.1449                40.8966

                    103                    104                    105
                      A                      A                      A
 Frequencies --   3050.8204              3052.7549              3059.8876
 Red. masses --      1.1038                 1.0590                 1.1052
 Frc consts  --      6.0532                 5.8148                 6.0968
 IR Inten    --      0.0849                28.7625                 1.5249

                    106                    107                    108
                      A                      A                      A
 Frequencies --   3068.6232              3076.1098              3080.3886
 Red. masses --      1.1056                 1.1048                 1.0342
 Frc consts  --      6.1341                 6.1595                 5.7819
 IR Inten    --      4.8019                56.8724                 3.1242

                    109                    110                    111
                      A                      A                      A
 Frequencies --   3082.8143              3083.9743              3102.2346
 Red. masses --      1.0719                 1.0852                 1.1066
 Frc consts  --      6.0019                 6.0812                 6.2747
 IR Inten    --     30.0922                80.1587                44.9896

                    112                    113                    114
                      A                      A                      A
 Frequencies --   3108.0050              3116.0954              3148.2114
 Red. masses --      1.1029                 1.1018                 1.1102
 Frc consts  --      6.2770                 6.3031                 6.4831
 IR Inten    --     65.1748                38.8195                 0.1055

                    115                    116                    117
                      A                      A                      A
 Frequencies --   3184.6695              3193.1578              3668.8012
 Red. masses --      1.1075                 1.1097                 1.0680
 Frc consts  --      6.6179                 6.6665                 8.4698
 IR Inten    --      4.0027                 5.6255               249.7817

 - Thermochemistry -
 -------------------
 Temperature     0.001 Kelvin.  Pressure   1.00000 Atm.
 Atom     1 has atomic number  6 and mass  12.00000

 Molecular mass:   219.17826 amu.
 Principal axes and moments of inertia in atomic units:
                           1         2         3
     Eigenvalues --   500.45733********************
           X            1.00000   0.00239   0.00163
           Y           -0.00242   0.99988   0.01555
           Z           -0.00159  -0.01555   0.99988
 This molecule is an asymmetric top.
 Rotational symmetry number  1.
 Warning -- assumption of classical behavior for rotation
           may cause significant error
 Rotational temperatures (Kelvin)      0.17307     0.00421     0.00416
 Rotational constants (GHZ):           3.60618     0.08766     0.08669
 Zero-point vibrational energy     992264.8 (Joules/Mol)
                                  237.15698 (Kcal/Mol)
 Vibrational temperatures:     24.04    37.89    40.93    67.42    90.86
          (Kelvin)            109.40   123.37   146.62   182.29   195.50
                              200.65   212.92   233.61   240.19   267.85
                              290.49   331.25   359.21   397.66   441.12
                              459.96   498.36   574.53   604.82   703.36
                              726.46   950.87  1034.09  1062.40  1065.16
                             1072.65  1089.90  1127.48  1166.62  1189.05
                             1269.29  1303.30  1354.90  1418.76  1426.06
                             1429.30  1445.41  1464.97  1469.46  1485.99
                             1506.16  1527.20  1531.16  1542.12  1545.07
                             1572.72  1635.65  1653.81  1757.19  1770.28
                             1786.04  1793.75  1823.49  1835.84  1865.85
                             1879.47  1912.62  1915.71  1928.46  1940.23
                             1940.64  1952.59  1954.38  1956.94  1992.86
                             1999.77  2021.60  2041.00  2051.56  2053.27
                             2076.45  2108.86  2120.57  2142.86  2176.18
                             2176.80  2179.80  2181.68  2184.52  2191.84
                             2200.87  2201.67  2209.74  2217.33  2222.70
                             4333.75  4335.70  4339.90  4344.39  4349.72
                             4356.55  4361.01  4364.45  4370.41  4371.11
                             4379.17  4379.51  4389.45  4392.23  4402.50
                             4415.06  4425.84  4431.99  4435.48  4437.15
                             4463.42  4471.73  4483.37  4529.57  4582.03
                             4594.24  5278.59

 Zero-point correction=                           0.377934 (Hartree/Particle)
 Thermal correction to Energy=                    0.377934
 Thermal correction to Enthalpy=                  0.377934
 Thermal correction to Gibbs Free Energy=         0.377934
 Sum of electronic and zero-point Energies=           -946.312096
 Sum of electronic and thermal Energies=              -946.312096
 Sum of electronic and thermal Enthalpies=            -946.312096
 Sum of electronic and thermal Free Energies=         -946.312096

                     E (Thermal)             CV                S
                      KCal/Mol        Cal/Mol-Kelvin    Cal/Mol-Kelvin
 Total                  237.157              5.962            -24.413
 Electronic               0.000              0.000              0.000
 Translational            0.000              2.981            -20.566
 Rotational               0.000              2.981             -3.847
 Vibrational            237.157              0.000              0.000

 Optimization completed.
    -- Stationary point found.
 Normal termination of Gaussian 16 at Mon Oct 14 13:42:13 2019.
