 Gaussian 16, Revision A.03,
 Gaussian 16:  ES64L-G16RevA.03 25-Dec-2016

 --------------------------------------------------------------
 #P opt freq b3lyp/6-31g(d) geom=connectivity temperature=0.001
 --------------------------------------------------------------

 ---------------------
 nitropyridine n oxide
 ---------------------
 Symbolic Z-matrix:
 Charge =  0 Multiplicity = 1

 SCF Done:  E(RB3LYP) =  -452.750717014     A.U. after   16 cycles
 SCF Done:  E(RB3LYP) =  -452.776416287     A.U. after   14 cycles
 SCF Done:  E(RB3LYP) =  -452.781302892     A.U. after   13 cycles
 SCF Done:  E(RB3LYP) =  -452.781817144     A.U. after   12 cycles
 SCF Done:  E(RB3LYP) =  -452.781857322     A.U. after   10 cycles
 SCF Done:  E(RB3LYP) =  -452.781861784     A.U. after    9 cycles
 SCF Done:  E(RB3LYP) =  -452.781862744     A.U. after    8 cycles
 Optimization completed.
    -- Stationary point found.
 Normal termination of Gaussian 16 at Mon Oct 14 13:39:44 2019.

 --------------------------------------------------------------------
 #P Geom=AllCheck Guess=TCheck SCRF=Check GenChk RB3LYP/6-31G(d) Freq
 --------------------------------------------------------------------

 Structure from the checkpoint file:  "12.chk"
 ---------------------
 nitropyridine n oxide
 ---------------------
 Charge =  0 Multiplicity = 1

                         Standard orientation:
 ---------------------------------------------------------------------
 Center     Atomic      Atomic             Coordinates (Angstroms)
 Number     Number       Type             X           Y           Z
 ---------------------------------------------------------------------
      1          6           0        1.209866   -0.446929    0.000000
      2          6           0        1.145720   -1.841557    0.000000
      3          7           0        0.000793   -2.535376    0.000000
      4          6           0       -1.144552   -1.842253   -0.000000
      5          6           0       -1.209464   -0.447645   -0.000000
      6          6           0        0.000000    0.235972    0.000000
      7          7           0       -0.000649    1.714941   -0.000000
      8          8           0        1.090150    2.280154    0.000000
      9          8           0       -1.091652    2.279479   -0.000000
     10          1           0        2.150542    0.088973    0.000000
     11          1           0        2.062112   -2.427474    0.000000
     12          1           0       -2.060593   -2.428709   -0.000000
     13          1           0       -2.150476    0.087676   -0.000000
 ---------------------------------------------------------------------

 SCF Done:  E(RB3LYP) =  -452.781862744     A.U. after    1 cycles

 The electronic state is 1-A'.
 Alpha  occ. eigenvalues --  -19.19796 -19.19792 -14.58826 -14.36130 -10.27715
 Alpha  occ. eigenvalues --  -10.25339 -10.25338 -10.23434 -10.23434  -1.24122
 Alpha  occ. eigenvalues --   -1.06917  -0.97184  -0.86656  -0.79406  -0.74100
 Alpha  occ. eigenvalues --   -0.66468  -0.62003  -0.57624  -0.54782  -0.53333
 Alpha  occ. eigenvalues --   -0.50512  -0.50344  -0.48329  -0.46180  -0.42539
 Alpha  occ. eigenvalues --   -0.39744  -0.32543  -0.32302  -0.32226  -0.30748
 Alpha  occ. eigenvalues --   -0.29263  -0.28380
 Alpha virt. eigenvalues --   -0.10810  -0.04060  -0.01999   0.07552   0.12234
 Alpha virt. eigenvalues --    0.12452   0.14600   0.16813   0.17024   0.20930
 Alpha virt. eigenvalues --    0.25572   0.25948   0.28483   0.32585   0.36664

 Mulliken charges:
               1
     1  C   -0.161194
     2  C    0.038376
     3  N   -0.387717
     4  C    0.038384
     5  C   -0.161224
     6  C    0.301446
     7  N    0.386823
     8  O   -0.381844
     9  O   -0.381831
    10  H    0.191291
    11  H    0.163100
    12  H    0.163101
    13  H    0.191287
 Sum of Mulliken charges =  -0.00000

 Dipole moment (field-independent basis, Debye):
    X=              0.0002    Y=             -1.9841    Z=              0.0000  Tot=              1.9841
 Quadrupole moment (field-independent basis, Debye-Ang):
   XX=            -44.6881   YY=            -62.9232   ZZ=            -50.0134
   XY=              0.0046   XZ=             -0.0000   YZ=             -0.0000

  Exact polarizability:  83.451  -0.001  88.282   0.000  -0.000  26.054
 Approx polarizability: 168.706   0.011 145.259   0.000  -0.000  40.151

                      1                      2                      3
                     A"                     A"                     A'
 Frequencies --     58.4067               171.8786               253.2672
 Red. masses --      7.7398                 7.8271                 6.9741
 Frc consts  --      0.0156                 0.1362                 0.2636
 IR Inten    --      0.0000                 8.4278                 3.4152

                      4                      5                      6
                     A'                     A"                     A"
 Frequencies --    389.9679               393.8917               468.6837
 Red. masses --     10.7190                 2.6301                 4.7343
 Frc consts  --      0.9604                 0.2404                 0.6127
 IR Inten    --      0.5817                 0.0000                 2.7847

                      7                      8                      9
                     A'                     A'                     A'
 Frequencies --    527.8446               676.2014               693.1899
 Red. masses --      8.2342                 6.8868                 8.2533
 Frc consts  --      1.3517                 1.8553                 2.3366
 IR Inten    --      1.6018                 0.7836                30.8562

                     10                     11                     12
                     A"                     A"                     A'
 Frequencies --    712.2609               752.3763               866.8835
 Red. masses --      4.3982                 3.1258                10.4098
 Frc consts  --      1.3146                 1.0425                 4.6091
 IR Inten    --     26.4865                10.4698                20.1242

                     13                     14                     15
                     A"                     A"                     A"
 Frequencies --    869.5300               889.6338               992.5819
 Red. masses --      1.6887                 1.2422                 1.3201
 Frc consts  --      0.7523                 0.5792                 0.7663
 IR Inten    --     17.3329                 0.0000                 1.3434

                     16                     17                     18
                     A"                     A'                     A'
 Frequencies --   1001.8339              1012.6513              1084.9336
 Red. masses --      1.4499                 7.0403                 1.7204
 Frc consts  --      0.8574                 4.2536                 1.1931
 IR Inten    --      0.0000                 7.3107                10.8713

                     19                     20                     21
                     A'                     A'                     A'
 Frequencies --   1105.4190              1143.4065              1248.0921
 Red. masses --      1.4299                 5.1789                 1.3369
 Frc consts  --      1.0295                 3.9893                 1.2270
 IR Inten    --      0.0000                20.4259                 0.3526

                     22                     23                     24
                     A'                     A'                     A'
 Frequencies --   1309.5257              1359.3315              1404.3773
 Red. masses --     10.2410                 1.4488                14.5532
 Frc consts  --     10.3472                 1.5773                16.9113
 IR Inten    --      9.8168                 1.2324               197.4590

                     25                     26                     27
                     A'                     A'                     A'
 Frequencies --   1451.3476              1527.2766              1627.1347
 Red. masses --      1.9938                 2.0540                 5.2898
 Frc consts  --      2.4744                 2.8228                 8.2516
 IR Inten    --     19.6217                 3.6409                19.3589

                     28                     29                     30
                     A'                     A'                     A'
 Frequencies --   1627.6578              1677.6856              3191.2512
 Red. masses --     10.5243                10.3845                 1.0890
 Frc consts  --     16.4274                17.2210                 6.5343
 IR Inten    --    173.0213                59.4795                28.0740

                     31                     32                     33
                     A'                     A'                     A'
 Frequencies --   3194.2607              3257.8150              3258.2338
 Red. masses --      1.0929                 1.0939                 1.0928
 Frc consts  --      6.5704                 6.8402                 6.8351
 IR Inten    --      6.9599                 3.7766                 0.7386

 - Thermochemistry -
 -------------------
 Temperature     0.001 Kelvin.  Pressure   1.00000 Atm.
 Atom     1 has atomic number  6 and mass  12.00000

 Molecular mass:   124.02728 amu.
 Principal axes and moments of inertia in atomic units:
                           1         2         3
     Eigenvalues --   437.625431414.448881852.07431
           X           -0.00034   1.00000   0.00000
           Y            1.00000   0.00034   0.00000
           Z           -0.00000  -0.00000   1.00000
 This molecule is an asymmetric top.
 Rotational symmetry number  1.
 Warning -- assumption of classical behavior for rotation
           may cause significant error
 Rotational temperatures (Kelvin)      0.19792     0.06124     0.04677
 Rotational constants (GHZ):           4.12394     1.27593     0.97444
 Zero-point vibrational energy     240442.4 (Joules/Mol)
                                   57.46712 (Kcal/Mol)
 Vibrational temperatures:     84.03   247.29   364.40   561.08   566.72
          (Kelvin)            674.33   759.45   972.90   997.35  1024.78
                             1082.50  1247.25  1251.06  1279.98  1428.10
                             1441.42  1456.98  1560.98  1590.45  1645.11
                             1795.73  1884.12  1955.77  2020.59  2088.17
                             2197.41  2341.08  2341.84  2413.82  4591.50
                             4595.83  4687.27  4687.87

 Zero-point correction=                           0.091580 (Hartree/Particle)
 Thermal correction to Energy=                    0.091580
 Thermal correction to Enthalpy=                  0.091580
 Thermal correction to Gibbs Free Energy=         0.091580
 Sum of electronic and zero-point Energies=           -452.690283
 Sum of electronic and thermal Energies=              -452.690283
 Sum of electronic and thermal Enthalpies=            -452.690283
 Sum of electronic and thermal Free Energies=         -452.690283

                     E (Thermal)             CV                S
                      KCal/Mol        Cal/Mol-Kelvin    Cal/Mol-Kelvin
 Total                   57.467              5.962            -31.308
 Electronic               0.000              0.000              0.000
 Translational            0.000              2.981            -22.264
 Rotational               0.000              2.981             -9.045
 Vibrational             57.467              0.000              0.000

 Optimization completed.
    -- Stationary point found.
 Normal termination of Gaussian 16 at Mon Oct 14 13:39:55 2019.
