 Gaussian 16, Revision A.03,
 Gaussian 16:  ES64L-G16RevA.03 25-Dec-2016

 --------------------------------------------------------------
 #P opt freq b3lyp/6-31g(d) geom=connectivity temperature=0.001
 --------------------------------------------------------------

 --------------------------
 nitropyridine n oxide plus
 --------------------------
 Symbolic Z-matrix:
 Charge =  1 Multiplicity = 1

 SCF Done:  E(RB3LYP) =  -453.096229649     A.U. after   18 cycles
 SCF Done:  E(RB3LYP) =  -453.123366565     A.U. after   14 cycles
 SCF Done:  E(RB3LYP) =  -453.129691796     A.U. after   13 cycles
 SCF Done:  E(RB3LYP) =  -453.130292535     A.U. after   12 cycles
 SCF Done:  E(RB3LYP) =  -453.130340641     A.U. after   10 cycles
 SCF Done:  E(RB3LYP) =  -453.130348319     A.U. after    9 cycles
 SCF Done:  E(RB3LYP) =  -453.130349667     A.U. after    8 cycles
 Optimization completed.
    -- Stationary point found.
 Normal termination of Gaussian 16 at Mon Oct 14 13:41:05 2019.

 --------------------------------------------------------------------
 #P Geom=AllCheck Guess=TCheck SCRF=Check GenChk RB3LYP/6-31G(d) Freq
 --------------------------------------------------------------------

 Structure from the checkpoint file:  "12_p.chk"
 --------------------------
 nitropyridine n oxide plus
 --------------------------
 Charge =  1 Multiplicity = 1

                         Standard orientation:
 ---------------------------------------------------------------------
 Center     Atomic      Atomic             Coordinates (Angstroms)
 Number     Number       Type             X           Y           Z
 ---------------------------------------------------------------------
      1          6           0        1.220375   -0.394349    0.000000
      2          6           0        1.193511   -1.779182    0.000000
      3          7           0        0.001655   -2.419245    0.000000
      4          6           0       -1.191016   -1.780750    0.000000
      5          6           0       -1.219506   -0.395943    0.000000
      6          6           0       -0.000000    0.275053    0.000000
      7          7           0       -0.001375    1.770811    0.000000
      8          8           0        1.095527    2.308466    0.000000
      9          8           0       -1.099019    2.306556    0.000000
     10          1           0        2.155104    0.153866    0.000000
     11          1           0        2.083784   -2.397030    0.000000
     12          1           0       -2.080507   -2.399720    0.000000
     13          1           0       -2.154968    0.151056    0.000000
     14          1           0        0.002377   -3.438286    0.000000
 ---------------------------------------------------------------------

 SCF Done:  E(RB3LYP) =  -453.130349667     A.U. after    1 cycles

 The electronic state is 1-A'.
 Alpha  occ. eigenvalues --  -19.35329 -19.35324 -14.74563 -14.66048 -10.48160
 Alpha  occ. eigenvalues --  -10.48159 -10.47447 -10.43302 -10.43300  -1.39902
 Alpha  occ. eigenvalues --   -1.23710  -1.23046  -1.06801  -1.01765  -0.93875
 Alpha  occ. eigenvalues --   -0.88703  -0.82138  -0.81196  -0.73909  -0.72638
 Alpha  occ. eigenvalues --   -0.70541  -0.69442  -0.67573  -0.66794  -0.66057
 Alpha  occ. eigenvalues --   -0.63621  -0.60326  -0.53335  -0.50215  -0.47397
 Alpha  occ. eigenvalues --   -0.47372  -0.46228
 Alpha virt. eigenvalues --   -0.29838  -0.24303  -0.21195  -0.14522  -0.08211
 Alpha virt. eigenvalues --   -0.08084  -0.05833  -0.04853  -0.00497  -0.00348
 Alpha virt. eigenvalues --    0.04090   0.05908   0.08515   0.09546   0.12383

 Mulliken charges:
               1
     1  C   -0.162977
     2  C    0.134407
     3  N   -0.532210
     4  C    0.134453
     5  C   -0.163078
     6  C    0.328331
     7  N    0.425510
     8  O   -0.329803
     9  O   -0.329787
    10  H    0.270025
    11  H    0.268464
    12  H    0.268472
    13  H    0.270036
    14  H    0.418156
 Sum of Mulliken charges =   1.00000

 Dipole moment (field-independent basis, Debye):
    X=              0.0070    Y=            -10.1592    Z=              0.0000  Tot=             10.1592
 Quadrupole moment (field-independent basis, Debye-Ang):
   XX=            -36.1926   YY=            -26.6434   ZZ=            -48.7481
   XY=             -0.0080   XZ=              0.0000   YZ=              0.0000

  Exact polarizability:  80.543  -0.001  86.658  -0.000  -0.000  25.100
 Approx polarizability: 168.706   0.036 136.953  -0.000  -0.000  38.488

                      1                      2                      3
                     A"                     A"                     A'
 Frequencies --     51.2055               162.4487               247.2457
 Red. masses --      8.0430                 5.2602                 6.5300
 Frc consts  --      0.0124                 0.0818                 0.2352
 IR Inten    --      0.0000                 0.0020                 1.4500

                      4                      5                      6
                     A'                     A"                     A"
 Frequencies --    381.5537               412.6703               451.2113
 Red. masses --      9.6182                 2.8096                 4.1650
 Frc consts  --      0.8250                 0.2819                 0.4996
 IR Inten    --      6.9708                 0.0000                 0.0740

                      7                      8                      9
                     A'                     A'                     A"
 Frequencies --    521.5487               649.3264               671.3935
 Red. masses --      8.1368                 6.4731                 4.1048
 Frc consts  --      1.3040                 1.6080                 1.0902
 IR Inten    --      0.4950                 0.1727                37.9665

                     10                     11                     12
                     A'                     A"                     A"
 Frequencies --    699.5461               739.4344               805.1762
 Red. masses --      7.5150                 2.2427                 1.6629
 Frc consts  --      2.1668                 0.7225                 0.6352
 IR Inten    --     10.4530                60.0178                87.4879

                     13                     14                     15
                     A'                     A"                     A"
 Frequencies --    859.6223               878.0234               931.1235
 Red. masses --     10.2170                 1.2562                 1.4332
 Frc consts  --      4.4483                 0.5706                 0.7321
 IR Inten    --     44.2297                 0.0000                 0.2252

                     16                     17                     18
                     A"                     A"                     A'
 Frequencies --   1005.8747              1009.1836              1025.4141
 Red. masses --      1.3694                 1.2916                 5.7812
 Frc consts  --      0.8163                 0.7750                 3.5815
 IR Inten    --      0.0002                 5.8877                 2.6052

                     19                     20                     21
                     A'                     A'                     A'
 Frequencies --   1067.0728              1113.7440              1132.5201
 Red. masses --      1.8780                 1.4110                 4.8778
 Frc consts  --      1.2599                 1.0312                 3.6861
 IR Inten    --     11.1635                 6.6770                 9.3377

                     22                     23                     24
                     A'                     A'                     A'
 Frequencies --   1222.7096              1294.5947              1344.2210
 Red. masses --      1.2438                 1.6578                 1.3897
 Frc consts  --      1.0956                 1.6370                 1.4794
 IR Inten    --      0.5646                10.0291                 0.0267

                     25                     26                     27
                     A'                     A'                     A'
 Frequencies --   1377.9369              1384.0832              1525.8089
 Red. masses --     14.7406                 3.2185                 2.1310
 Frc consts  --     16.4902                 3.6327                 2.9230
 IR Inten    --    113.5755                38.2612                27.1125

                     28                     29                     30
                     A'                     A'                     A'
 Frequencies --   1571.9411              1660.3040              1676.7352
 Red. masses --      2.2243                 4.0709                 5.0535
 Frc consts  --      3.2383                 6.6117                 8.3709
 IR Inten    --     13.3448               160.4440                49.1572

                     31                     32                     33
                     A'                     A'                     A'
 Frequencies --   1696.1697              3257.2143              3257.7192
 Red. masses --     10.7899                 1.0936                 1.0918
 Frc consts  --     18.2897                 6.8358                 6.8271
 IR Inten    --     94.5065                25.7983                 3.6864

                     34                     35                     36
                     A'                     A'                     A'
 Frequencies --   3265.1008              3266.5383              3545.8264
 Red. masses --      1.0978                 1.0994                 1.0806
 Frc consts  --      6.8954                 6.9116                 8.0051
 IR Inten    --     56.3274                 1.8476               185.5582

 - Thermochemistry -
 -------------------
 Temperature     0.001 Kelvin.  Pressure   1.00000 Atm.
 Atom     1 has atomic number  6 and mass  12.00000

 Molecular mass:   125.03510 amu.
 Principal axes and moments of inertia in atomic units:
                           1         2         3
     Eigenvalues --   451.559581428.275741879.83532
           X           -0.00074   1.00000   0.00000
           Y            1.00000   0.00074   0.00000
           Z           -0.00000   0.00000   1.00000
 This molecule is an asymmetric top.
 Rotational symmetry number  1.
 Warning -- assumption of classical behavior for rotation
           may cause significant error
 Rotational temperatures (Kelvin)      0.19181     0.06064     0.04608
 Rotational constants (GHZ):           3.99668     1.26358     0.96005
 Zero-point vibrational energy     276111.5 (Joules/Mol)
                                   65.99224 (Kcal/Mol)
 Vibrational temperatures:     73.67   233.73   355.73   548.97   593.74
          (Kelvin)            649.19   750.39   934.24   965.99  1006.49
                             1063.88  1158.47  1236.80  1263.28  1339.68
                             1447.23  1451.99  1475.34  1535.28  1602.43
                             1629.44  1759.21  1862.63  1934.03  1982.54
                             1991.39  2195.30  2261.67  2388.81  2412.45
                             2440.41  4686.40  4687.13  4697.75  4699.82
                             5101.65

 Zero-point correction=                           0.105165 (Hartree/Particle)
 Thermal correction to Energy=                    0.105165
 Thermal correction to Enthalpy=                  0.105165
 Thermal correction to Gibbs Free Energy=         0.105165
 Sum of electronic and zero-point Energies=           -453.025184
 Sum of electronic and thermal Energies=              -453.025184
 Sum of electronic and thermal Enthalpies=            -453.025184
 Sum of electronic and thermal Free Energies=         -453.025184

                     E (Thermal)             CV                S
                      KCal/Mol        Cal/Mol-Kelvin    Cal/Mol-Kelvin
 Total                   65.992              5.962            -31.229
 Electronic               0.000              0.000              0.000
 Translational            0.000              2.981            -22.240
 Rotational               0.000              2.981             -8.989
 Vibrational             65.992              0.000              0.000

 Optimization completed.
    -- Stationary point found.
 Normal termination of Gaussian 16 at Mon Oct 14 13:41:16 2019.
