 Gaussian 16, Revision A.03,
 Gaussian 16:  ES64L-G16RevA.03 25-Dec-2016

 --------------------------------------------------------------
 #p opt freq b3lyp/6-31g(d) geom=connectivity temperature=0.001
 --------------------------------------------------------------

 -----------------------------
 4_methyl_pyridine_n_oxide.sdf
 -----------------------------
 Symbolic Z-matrix:
 Charge =  0 Multiplicity = 1

 SCF Done:  E(RB3LYP) =  -362.756921997     A.U. after   15 cycles
 SCF Done:  E(RB3LYP) =  -362.765040097     A.U. after   12 cycles
 SCF Done:  E(RB3LYP) =  -362.765605272     A.U. after   11 cycles
 SCF Done:  E(RB3LYP) =  -362.765648119     A.U. after   10 cycles
 SCF Done:  E(RB3LYP) =  -362.765649482     A.U. after    9 cycles
 Optimization completed.
    -- Stationary point found.
 Normal termination of Gaussian 16 at Mon Oct 14 13:41:08 2019.

 --------------------------------------------------------------------
 #P Geom=AllCheck Guess=TCheck SCRF=Check GenChk RB3LYP/6-31G(d) Freq
 --------------------------------------------------------------------

 Structure from the checkpoint file:  "13.chk"
 -----------------------------
 4_methyl_pyridine_n_oxide.sdf
 -----------------------------
 Charge =  0 Multiplicity = 1

                         Standard orientation:
 ---------------------------------------------------------------------
 Center     Atomic      Atomic             Coordinates (Angstroms)
 Number     Number       Type             X           Y           Z
 ---------------------------------------------------------------------
      1          6           0        0.607684    1.187544   -0.009774
      2          6           0       -0.774680    1.176174   -0.002151
      3          7           0       -1.482403    0.000009    0.003331
      4          6           0       -0.774598   -1.176163   -0.002150
      5          6           0        0.607714   -1.187490   -0.009775
      6          6           0        1.351145    0.000073   -0.010869
      7          8           0       -2.758802   -0.000072    0.009933
      8          6           0        2.858657   -0.000016    0.012629
      9          1           0        1.108389    2.151959   -0.016351
     10          1           0       -1.400670    2.058451   -0.003465
     11          1           0       -1.400571   -2.058452   -0.003460
     12          1           0        1.108445   -2.151899   -0.016362
     13          1           0        3.243644   -0.006407    1.041483
     14          1           0        3.266316   -0.882610   -0.491492
     15          1           0        3.266154    0.888741   -0.480589
 ---------------------------------------------------------------------

 SCF Done:  E(RB3LYP) =  -362.765649482     A.U. after    1 cycles

 The electronic state is 1-A.
 Alpha  occ. eigenvalues --  -19.10876 -14.47626 -10.23323 -10.23321 -10.21735
 Alpha  occ. eigenvalues --  -10.21375 -10.21371 -10.20020  -1.09805  -0.89648
 Alpha  occ. eigenvalues --   -0.81045  -0.78549  -0.71522  -0.66567  -0.61633
 Alpha  occ. eigenvalues --   -0.51927  -0.51651  -0.48680  -0.46488  -0.44917
 Alpha  occ. eigenvalues --   -0.43789  -0.43035  -0.41358  -0.37981  -0.37321
 Alpha  occ. eigenvalues --   -0.32827  -0.27981  -0.23854  -0.20535
 Alpha virt. eigenvalues --   -0.03274  -0.02372   0.08317   0.11068   0.11264
 Alpha virt. eigenvalues --    0.11973   0.15641   0.15796   0.17983   0.17999
 Alpha virt. eigenvalues --    0.18679   0.24036   0.26728   0.27115   0.33207

 Mulliken charges:
               1
     1  C   -0.217966
     2  C    0.074292
     3  N   -0.003204
     4  C    0.074287
     5  C   -0.217874
     6  C    0.191669
     7  O   -0.524309
     8  C   -0.527440
     9  H    0.146747
    10  H    0.178584
    11  H    0.178592
    12  H    0.146755
    13  H    0.172909
    14  H    0.163534
    15  H    0.163425
 Sum of Mulliken charges =  -0.00000

 Dipole moment (field-independent basis, Debye):
    X=              4.4530    Y=             -0.0009    Z=              0.0159  Tot=              4.4530
 Quadrupole moment (field-independent basis, Debye-Ang):
   XX=            -55.0109   YY=            -39.5506   ZZ=            -48.2128
   XY=             -0.0023   XZ=              0.1367   YZ=              0.0000

  Exact polarizability: 110.168  -0.011  75.534   0.377  -0.000  31.997
 Approx polarizability: 210.513  -0.014 125.643   0.339  -0.001  47.391

                      1                      2                      3
                      A                      A                      A
 Frequencies --     24.3602               139.9268               312.3338
 Red. masses --      1.0358                 4.6358                 2.8919
 Frc consts  --      0.0004                 0.0535                 0.1662
 IR Inten    --      0.2966                 1.9919                 0.6560

                      4                      5                      6
                      A                      A                      A
 Frequencies --    324.1209               429.2496               474.3104
 Red. masses --      4.2330                 3.1400                 6.4605
 Frc consts  --      0.2620                 0.3409                 0.8563
 IR Inten    --      7.3021                 0.0024                 4.7247

                      7                      8                      9
                      A                      A                      A
 Frequencies --    493.6895               526.1146               677.5413
 Red. masses --      5.3136                 2.4940                 6.8518
 Frc consts  --      0.7630                 0.4067                 1.8532
 IR Inten    --      7.0955                 8.0849                 0.0965

                     10                     11                     12
                      A                      A                      A
 Frequencies --    707.6605               778.0159               828.3995
 Red. masses --      3.2344                 4.3579                 1.2550
 Frc consts  --      0.9543                 1.5542                 0.5074
 IR Inten    --      0.5953                16.8334                 0.0136

                     13                     14                     15
                      A                      A                      A
 Frequencies --    841.4792               874.7442               938.7296
 Red. masses --      1.6931                 6.1588                 1.2356
 Frc consts  --      0.7064                 2.7766                 0.6415
 IR Inten    --     51.9023                 1.7373                 0.5465

                     16                     17                     18
                      A                      A                      A
 Frequencies --    952.6357              1014.8431              1051.3515
 Red. masses --      1.3146                 1.4547                 2.7162
 Frc consts  --      0.7029                 0.8827                 1.7689
 IR Inten    --      0.0015                 0.3126                15.4395

                     19                     20                     21
                      A                      A                      A
 Frequencies --   1074.6824              1132.1571              1208.5650
 Red. masses --      1.5029                 1.2992                 1.1314
 Frc consts  --      1.0227                 0.9811                 0.9736
 IR Inten    --      9.1678                 7.1298                18.8746

                     22                     23                     24
                      A                      A                      A
 Frequencies --   1250.3819              1272.6049              1344.2101
 Red. masses --      2.8863                 5.8972                 1.2884
 Frc consts  --      2.6587                 5.6271                 1.3716
 IR Inten    --      1.2958                 6.7674                 0.0091

                     25                     26                     27
                      A                      A                      A
 Frequencies --   1367.8729              1445.7285              1488.8488
 Red. masses --      6.3244                 1.2351                 2.2256
 Frc consts  --      6.9720                 1.5210                 2.9067
 IR Inten    --    161.7877                 0.1431                 0.0057

                     28                     29                     30
                      A                      A                      A
 Frequencies --   1515.8792              1524.0054              1535.5839
 Red. masses --      1.0548                 1.3262                 2.6101
 Frc consts  --      1.4280                 1.8148                 3.6263
 IR Inten    --      7.2146                 7.3037               138.1178

                     31                     32                     33
                      A                      A                      A
 Frequencies --   1582.5773              1691.9361              3039.6283
 Red. masses --      4.6911                 5.6637                 1.0421
 Frc consts  --      6.9224                 9.5525                 5.6726
 IR Inten    --      4.4394                12.8776                31.3700

                     34                     35                     36
                      A                      A                      A
 Frequencies --   3097.8718              3127.0378              3199.2037
 Red. masses --      1.0941                 1.1029                 1.0905
 Frc consts  --      6.1861                 6.3538                 6.5760
 IR Inten    --     18.9835                14.6051                11.8438

                     37                     38                     39
                      A                      A                      A
 Frequencies --   3199.9223              3267.6485              3268.8028
 Red. masses --      1.0906                 1.0933                 1.0945
 Frc consts  --      6.5793                 6.8777                 6.8903
 IR Inten    --      4.8915                 0.0295                 0.1806

 - Thermochemistry -
 -------------------
 Temperature     0.001 Kelvin.  Pressure   1.00000 Atm.
 Atom     1 has atomic number  6 and mass  12.00000

 Molecular mass:   109.05276 amu.
 Principal axes and moments of inertia in atomic units:
                           1         2         3
     Eigenvalues --   314.535751196.656791499.92704
           X            1.00000  -0.00000   0.00053
           Y            0.00000   1.00000   0.00000
           Z           -0.00053  -0.00000   1.00000
 This molecule is an asymmetric top.
 Rotational symmetry number  1.
 Rotational temperatures (Kelvin)      0.27537     0.07238     0.05775
 Rotational constants (GHZ):           5.73779     1.50815     1.20322
 Zero-point vibrational energy     317157.9 (Joules/Mol)
                                   75.80255 (Kcal/Mol)
 Vibrational temperatures:     35.05   201.32   449.38   466.34   617.59
          (Kelvin)            682.43   710.31   756.96   974.83  1018.17
                             1119.39  1191.88  1210.70  1258.56  1350.62
                             1370.63  1460.13  1512.66  1546.23  1628.92
                             1738.86  1799.02  1830.99  1934.02  1968.06
                             2080.08  2142.12  2181.01  2192.70  2209.36
                             2276.98  2434.32  4373.35  4457.15  4499.11
                             4602.94  4603.97  4701.42  4703.08

 Zero-point correction=                           0.120799 (Hartree/Particle)
 Thermal correction to Energy=                    0.120799
 Thermal correction to Enthalpy=                  0.120799
 Thermal correction to Gibbs Free Energy=         0.120799
 Sum of electronic and zero-point Energies=           -362.644850
 Sum of electronic and thermal Energies=              -362.644850
 Sum of electronic and thermal Enthalpies=            -362.644850
 Sum of electronic and thermal Free Energies=         -362.644850

                     E (Thermal)             CV                S
                      KCal/Mol        Cal/Mol-Kelvin    Cal/Mol-Kelvin
 Total                   75.803              5.962            -32.396
 Electronic               0.000              0.000              0.000
 Translational            0.000              2.981            -22.647
 Rotational               0.000              2.981             -9.749
 Vibrational             75.803              0.000              0.000

                           ! Non-Optimized Parameters !
 Normal termination of Gaussian 16 at Mon Oct 14 13:41:23 2019.
