 Gaussian 16, Revision A.03,
 Gaussian 16:  ES64L-G16RevA.03 25-Dec-2016

 --------------------------------------------------------------
 #p opt freq b3lyp/6-31g(d) geom=connectivity temperature=0.001
 --------------------------------------------------------------

 -----------------------------
 4_methyl_pyridine_n_oxide.sdf
 -----------------------------
 Symbolic Z-matrix:
 Charge =  1 Multiplicity = 1

 SCF Done:  E(RB3LYP) =  -363.125635335     A.U. after   14 cycles
 SCF Done:  E(RB3LYP) =  -363.135743090     A.U. after   12 cycles
 SCF Done:  E(RB3LYP) =  -363.136661373     A.U. after   11 cycles
 SCF Done:  E(RB3LYP) =  -363.136872243     A.U. after   11 cycles
 SCF Done:  E(RB3LYP) =  -363.137011422     A.U. after   11 cycles
 SCF Done:  E(RB3LYP) =  -363.137158203     A.U. after   12 cycles
 SCF Done:  E(RB3LYP) =  -363.137256248     A.U. after   11 cycles
 SCF Done:  E(RB3LYP) =  -363.137303218     A.U. after   10 cycles
 SCF Done:  E(RB3LYP) =  -363.137307763     A.U. after    8 cycles
 SCF Done:  E(RB3LYP) =  -363.137307922     A.U. after    7 cycles
 SCF Done:  E(RB3LYP) =  -363.137308487     A.U. after    7 cycles
 SCF Done:  E(RB3LYP) =  -363.137310184     A.U. after    9 cycles
 SCF Done:  E(RB3LYP) =  -363.137311850     A.U. after   10 cycles
 SCF Done:  E(RB3LYP) =  -363.137313593     A.U. after   10 cycles
 SCF Done:  E(RB3LYP) =  -363.137315577     A.U. after    9 cycles
 SCF Done:  E(RB3LYP) =  -363.137319075     A.U. after   10 cycles
 SCF Done:  E(RB3LYP) =  -363.137321496     A.U. after    9 cycles
 SCF Done:  E(RB3LYP) =  -363.137321983     A.U. after    9 cycles
 SCF Done:  E(RB3LYP) =  -363.137322058     A.U. after    8 cycles
 Optimization completed.
    -- Stationary point found.
 Normal termination of Gaussian 16 at Mon Oct 14 13:42:06 2019.

 --------------------------------------------------------------------
 #P Geom=AllCheck Guess=TCheck SCRF=Check GenChk RB3LYP/6-31G(d) Freq
 --------------------------------------------------------------------

 Structure from the checkpoint file:  "13_p.chk"
 -----------------------------
 4_methyl_pyridine_n_oxide.sdf
 -----------------------------
 Charge =  1 Multiplicity = 1

                         Standard orientation:
 ---------------------------------------------------------------------
 Center     Atomic      Atomic             Coordinates (Angstroms)
 Number     Number       Type             X           Y           Z
 ---------------------------------------------------------------------
      1          6           0       -0.662583    1.203119   -0.009414
      2          6           0        0.718403    1.188788    0.005343
      3          7           0        1.360321    0.000004   -0.005852
      4          6           0        0.718445   -1.188786    0.005339
      5          6           0       -0.662555   -1.203165   -0.009407
      6          6           0       -1.393362   -0.000044   -0.016773
      7          8           0        2.740510    0.000027    0.108782
      8          6           0       -2.893216    0.000001    0.001371
      9          1           0       -1.169832    2.162020   -0.008450
     10          1           0        1.349881    2.068544    0.031097
     11          1           0        1.349947   -2.068526    0.031059
     12          1           0       -1.169766   -2.162085   -0.008433
     13          1           0       -3.301032    0.889407   -0.486210
     14          1           0       -3.301141   -0.890904   -0.483337
     15          1           0       -3.249251    0.001763    1.040722
     16          1           0        3.094082    0.000062   -0.804490
 ---------------------------------------------------------------------

 SCF Done:  E(RB3LYP) =  -363.137322058     A.U. after    1 cycles

 The electronic state is 1-A.
 Alpha  occ. eigenvalues --  -19.40629 -14.67531 -10.44683 -10.44682 -10.41823
 Alpha  occ. eigenvalues --  -10.39856 -10.39855 -10.34629  -1.32611  -1.14253
 Alpha  occ. eigenvalues --   -1.01400  -0.99076  -0.89616  -0.86293  -0.80802
 Alpha  occ. eigenvalues --   -0.78598  -0.71188  -0.69896  -0.67493  -0.64764
 Alpha  occ. eigenvalues --   -0.64736  -0.59629  -0.58151  -0.56786  -0.55473
 Alpha  occ. eigenvalues --   -0.54165  -0.52289  -0.47269  -0.47210
 Alpha virt. eigenvalues --   -0.24556  -0.21296  -0.13439  -0.09165  -0.06945
 Alpha virt. eigenvalues --   -0.04134  -0.03274  -0.02989  -0.00380   0.01442
 Alpha virt. eigenvalues --    0.01985   0.02712   0.03752   0.09190   0.10422

 Mulliken charges:
               1
     1  C   -0.212750
     2  C    0.143901
     3  N   -0.164611
     4  C    0.143921
     5  C   -0.212779
     6  C    0.218837
     7  O   -0.448613
     8  C   -0.540265
     9  H    0.222440
    10  H    0.257649
    11  H    0.257651
    12  H    0.222442
    13  H    0.209420
    14  H    0.209368
    15  H    0.228556
    16  H    0.464834
 Sum of Mulliken charges =   1.00000

 Dipole moment (field-independent basis, Debye):
    X=              0.4842    Y=              0.0004    Z=             -1.5444  Tot=              1.6185
 Quadrupole moment (field-independent basis, Debye-Ang):
   XX=            -23.6164   YY=            -32.4160   ZZ=            -44.8018
   XY=             -0.0013   XZ=             -5.8512   YZ=             -0.0000

  Exact polarizability:  97.150  -0.004  72.059  -1.881   0.000  33.004
 Approx polarizability: 148.804  -0.009 120.837  -1.636   0.000  49.089

                      1                      2                      3
                      A                      A                      A
 Frequencies --     32.1757               136.3924               228.9194
 Red. masses --      1.0356                 3.9275                 1.1976
 Frc consts  --      0.0006                 0.0430                 0.0370
 IR Inten    --      1.4084                 2.0993               116.1838

                      4                      5                      6
                      A                      A                      A
 Frequencies --    315.9387               319.5157               424.7834
 Red. masses --      2.8344                 4.1669                 2.7619
 Frc consts  --      0.1667                 0.2506                 0.2936
 IR Inten    --      0.1160                 5.1922                 5.1490

                      7                      8                      9
                      A                      A                      A
 Frequencies --    449.3341               464.4593               491.4616
 Red. masses --      3.6268                 6.0004                 2.7414
 Frc consts  --      0.4314                 0.7626                 0.3901
 IR Inten    --      0.0149                 1.7977                21.1492

                     10                     11                     12
                      A                      A                      A
 Frequencies --    674.3865               694.2160               753.7818
 Red. masses --      6.6930                 3.3523                 4.5601
 Frc consts  --      1.7935                 0.9519                 1.5266
 IR Inten    --      0.0003                 3.6144                 5.1841

                     13                     14                     15
                      A                      A                      A
 Frequencies --    837.7010               852.8930               860.5852
 Red. masses --      1.3147                 1.2620                 5.7050
 Frc consts  --      0.5436                 0.5409                 2.4894
 IR Inten    --     44.0860                 0.1841                 5.8528

                     16                     17                     18
                      A                      A                      A
 Frequencies --    979.6756               991.7526              1026.0182
 Red. masses --      1.2678                 1.3514                 1.4163
 Frc consts  --      0.7169                 0.7831                 0.8784
 IR Inten    --      1.8216                 0.0033                 0.0197

                     19                     20                     21
                      A                      A                      A
 Frequencies --   1065.1124              1075.4565              1152.7426
 Red. masses --      1.8176                 2.3042                 1.2798
 Frc consts  --      1.2149                 1.5702                 1.0020
 IR Inten    --     11.2928                 9.1245                 3.4042

                     22                     23                     24
                      A                      A                      A
 Frequencies --   1200.4785              1229.0639              1249.1135
 Red. masses --      2.5762                 1.4289                 3.3955
 Frc consts  --      2.1874                 1.2718                 3.1215
 IR Inten    --      7.5701                24.0860                 3.4631

                     25                     26                     27
                      A                      A                      A
 Frequencies --   1338.6971              1356.2381              1428.3225
 Red. masses --      4.5370                 1.4226                 1.2070
 Frc consts  --      4.7905                 1.5417                 1.4508
 IR Inten    --     10.7678                 0.4123                96.4437

                     28                     29                     30
                      A                      A                      A
 Frequencies --   1436.9101              1477.3048              1511.8507
 Red. masses --      1.1917                 1.5592                 1.0884
 Frc consts  --      1.4497                 2.0049                 1.4657
 IR Inten    --      9.3116                 0.9432                13.5376

                     31                     32                     33
                      A                      A                      A
 Frequencies --   1512.0305              1546.3981              1610.2794
 Red. masses --      1.5737                 2.3066                 6.0967
 Frc consts  --      2.1198                 3.2498                 9.3143
 IR Inten    --     42.6230                20.8221                 2.9410

                     34                     35                     36
                      A                      A                      A
 Frequencies --   1672.7967              3054.5901              3125.0834
 Red. masses --      5.1988                 1.0445                 1.0907
 Frc consts  --      8.5711                 5.7418                 6.2757
 IR Inten    --     81.2563                 3.2549                 3.0417

                     37                     38                     39
                      A                      A                      A
 Frequencies --   3161.9733              3235.5657              3235.6351
 Red. masses --      1.1052                 1.0930                 1.0920
 Frc consts  --      6.5102                 6.7419                 6.7355
 IR Inten    --      1.3291                 2.4348                 1.6911

                     40                     41                     42
                      A                      A                      A
 Frequencies --   3266.4381              3267.8119              3639.4417
 Red. masses --      1.0960                 1.0981                 1.0683
 Frc consts  --      6.8899                 6.9089                 8.3374
 IR Inten    --     24.5168                 7.1226               131.0012

 - Thermochemistry -
 -------------------
 Temperature     0.001 Kelvin.  Pressure   1.00000 Atm.
 Atom     1 has atomic number  6 and mass  12.00000

 Molecular mass:   110.06059 amu.
 Principal axes and moments of inertia in atomic units:
                           1         2         3
     Eigenvalues --   323.877991226.448601533.23670
           X            0.99997  -0.00000  -0.00740
           Y            0.00000   1.00000  -0.00000
           Z            0.00740   0.00000   0.99997
 This molecule is an asymmetric top.
 Rotational symmetry number  1.
 Rotational temperatures (Kelvin)      0.26743     0.07062     0.05649
 Rotational constants (GHZ):           5.57229     1.47152     1.17708
 Zero-point vibrational energy     349209.8 (Joules/Mol)
                                   83.46315 (Kcal/Mol)
 Vibrational temperatures:     46.29   196.24   329.36   454.57   459.71
          (Kelvin)            611.17   646.49   668.25   707.10   970.29
                              998.82  1084.52  1205.26  1227.12  1238.19
                             1409.53  1426.91  1476.21  1532.46  1547.34
                             1658.54  1727.22  1768.35  1797.20  1926.09
                             1951.32  2055.04  2067.39  2125.51  2175.22
                             2175.47  2224.92  2316.83  2406.78  4394.87
                             4496.30  4549.37  4655.26  4655.36  4699.68
                             4701.65  5236.34

 Zero-point correction=                           0.133007 (Hartree/Particle)
 Thermal correction to Energy=                    0.133007
 Thermal correction to Enthalpy=                  0.133007
 Thermal correction to Gibbs Free Energy=         0.133007
 Sum of electronic and zero-point Energies=           -363.004315
 Sum of electronic and thermal Energies=              -363.004315
 Sum of electronic and thermal Enthalpies=            -363.004315
 Sum of electronic and thermal Free Energies=         -363.004315

                     E (Thermal)             CV                S
                      KCal/Mol        Cal/Mol-Kelvin    Cal/Mol-Kelvin
 Total                   83.463              5.962            -32.293
 Electronic               0.000              0.000              0.000
 Translational            0.000              2.981            -22.620
 Rotational               0.000              2.981             -9.673
 Vibrational             83.463              0.000              0.000

                           ! Non-Optimized Parameters !
 Normal termination of Gaussian 16 at Mon Oct 14 13:42:23 2019.
