 Gaussian 16, Revision A.03,
 Gaussian 16:  ES64L-G16RevA.03 25-Dec-2016

 --------------------------------------------------------------
 #p opt freq b3lyp/6-31g(d) geom=connectivity temperature=0.001
 --------------------------------------------------------------

 -------------
 ricobenzadole
 -------------
 Symbolic Z-matrix:
 Charge =  0 Multiplicity = 1

 SCF Done:  E(RB3LYP) =  -1254.36584579     A.U. after   16 cycles
 SCF Done:  E(RB3LYP) =  -1254.40087444     A.U. after   13 cycles
 SCF Done:  E(RB3LYP) =  -1254.41655777     A.U. after   13 cycles
 SCF Done:  E(RB3LYP) =  -1254.41807468     A.U. after   12 cycles
 SCF Done:  E(RB3LYP) =  -1254.41856799     A.U. after   12 cycles
 SCF Done:  E(RB3LYP) =  -1254.41899078     A.U. after   12 cycles
 SCF Done:  E(RB3LYP) =  -1254.42028070     A.U. after   13 cycles
 SCF Done:  E(RB3LYP) =  -1254.42138791     A.U. after   12 cycles
 SCF Done:  E(RB3LYP) =  -1254.42295873     A.U. after   13 cycles
 SCF Done:  E(RB3LYP) =  -1254.42331915     A.U. after   11 cycles
 SCF Done:  E(RB3LYP) =  -1254.42314318     A.U. after   12 cycles
 SCF Done:  E(RB3LYP) =  -1254.42342916     A.U. after   12 cycles
 SCF Done:  E(RB3LYP) =  -1254.42344855     A.U. after   10 cycles
 SCF Done:  E(RB3LYP) =  -1254.42345154     A.U. after    9 cycles
 SCF Done:  E(RB3LYP) =  -1254.42345260     A.U. after    8 cycles
 SCF Done:  E(RB3LYP) =  -1254.42345385     A.U. after    9 cycles
 SCF Done:  E(RB3LYP) =  -1254.42345424     A.U. after    8 cycles
 SCF Done:  E(RB3LYP) =  -1254.42345439     A.U. after    7 cycles
 SCF Done:  E(RB3LYP) =  -1254.42345442     A.U. after    7 cycles
 Optimization completed.
    -- Stationary point found.
 Normal termination of Gaussian 16 at Mon Oct 14 13:44:45 2019.

 --------------------------------------------------------------------
 #P Geom=AllCheck Guess=TCheck SCRF=Check GenChk RB3LYP/6-31G(d) Freq
 --------------------------------------------------------------------

 Structure from the checkpoint file:  "14.chk"
 -------------
 ricobenzadole
 -------------
 Charge =  0 Multiplicity = 1

                         Standard orientation:
 ---------------------------------------------------------------------
 Center     Atomic      Atomic             Coordinates (Angstroms)
 Number     Number       Type             X           Y           Z
 ---------------------------------------------------------------------
      1          6           0       -4.586967    3.021286    1.118348
      2          6           0       -4.450467    0.575223    0.462240
      3          6           0       -3.990032    1.996509    0.144746
      4         16           0       -3.887940   -0.713966   -0.749787
      5          6           0       -2.120528   -0.733838   -0.304913
      6          8           0       -4.488394   -2.014482   -0.249727
      7          6           0       -1.707713   -1.651548    0.675665
      8          6           0       -0.366491   -1.746117    1.038837
      9          6           0        0.526897   -0.899269    0.383719
     10          6           0        0.120684    0.017784   -0.620104
     11          6           0       -1.227863    0.095292   -0.981686
     12          7           0        1.899870   -0.728414    0.478937
     13          6           0        2.225631    0.239135   -0.434625
     14          7           0        1.214011    0.718730   -1.114973
     15          7           0        3.529617    0.674371   -0.620219
     16          6           0        4.626043    0.205370    0.061012
     17          8           0        5.734057    0.838186   -0.368137
     18          8           0        4.599231   -0.655769    0.926108
     19          6           0        6.955727    0.430250    0.272885
     20          1           0       -4.245164    4.033887    0.876830
     21          1           0       -5.682568    3.018296    1.077793
     22          1           0       -4.290895    2.805459    2.151615
     23          1           0       -5.542784    0.490217    0.418841
     24          1           0       -4.123894    0.236240    1.451734
     25          1           0       -4.280023    2.255523   -0.882471
     26          1           0       -2.895795    2.047893    0.185535
     27          1           0       -2.457791   -2.299940    1.119006
     28          1           0       -0.036135   -2.455851    1.791794
     29          1           0       -1.551967    0.771160   -1.767865
     30          1           0        2.582483   -1.188933    1.068323
     31          1           0        3.655481    1.389860   -1.324284
     32          1           0        7.736051    1.034095   -0.189897
     33          1           0        6.906630    0.622073    1.347475
     34          1           0        7.140242   -0.633285    0.103268
 ---------------------------------------------------------------------

 SCF Done:  E(RB3LYP) =  -1254.42345442     A.U. after    1 cycles

 The electronic state is 1-A.
 Alpha  occ. eigenvalues --  -88.97261 -19.21878 -19.15746 -19.09076 -14.40788
 Alpha  occ. eigenvalues --  -14.39449 -14.32303 -10.37012 -10.30654 -10.26160
 Alpha  occ. eigenvalues --  -10.23307 -10.21886 -10.20659 -10.20420 -10.20112
 Alpha  occ. eigenvalues --  -10.19885 -10.19373 -10.19242 -10.18188  -8.01940
 Alpha  occ. eigenvalues --   -5.98343  -5.98247  -5.97693  -1.13760  -1.05048
 Alpha  occ. eigenvalues --   -1.03341  -0.98616  -0.96115  -0.89091  -0.85184
 Alpha  occ. eigenvalues --   -0.80145  -0.77043  -0.75762  -0.73532  -0.71231
 Alpha  occ. eigenvalues --   -0.66173  -0.64979  -0.62720  -0.61695  -0.60080
 Alpha  occ. eigenvalues --   -0.58380  -0.56270  -0.55407  -0.52772  -0.51376
 Alpha  occ. eigenvalues --   -0.49045  -0.48450  -0.47131  -0.46828  -0.45665
 Alpha  occ. eigenvalues --   -0.45146  -0.44547  -0.44032  -0.43293  -0.42918
 Alpha  occ. eigenvalues --   -0.41366  -0.40221  -0.38845  -0.37896  -0.37035
 Alpha  occ. eigenvalues --   -0.36684  -0.35986  -0.35315  -0.34284  -0.33601
 Alpha  occ. eigenvalues --   -0.32781  -0.32443  -0.31232  -0.30255  -0.28829
 Alpha  occ. eigenvalues --   -0.24887  -0.24045  -0.22117  -0.20876
 Alpha virt. eigenvalues --   -0.02510  -0.00166   0.01860   0.05137   0.06184
 Alpha virt. eigenvalues --    0.07627   0.07701   0.09443   0.09475   0.10549
 Alpha virt. eigenvalues --    0.10647   0.11449   0.12731   0.13099   0.13848

 Mulliken charges:
               1
     1  C   -0.441105
     2  C   -0.451059
     3  C   -0.274947
     4  S    0.762384
     5  C   -0.163923
     6  O   -0.650888
     7  C   -0.165201
     8  C   -0.163318
     9  C    0.358768
    10  C    0.253440
    11  C   -0.222313
    12  N   -0.743282
    13  C    0.750283
    14  N   -0.577458
    15  N   -0.730555
    16  C    0.821815
    17  O   -0.476555
    18  O   -0.522855
    19  C   -0.217014
    20  H    0.150528
    21  H    0.148508
    22  H    0.149507
    23  H    0.180698
    24  H    0.182251
    25  H    0.148238
    26  H    0.158597
    27  H    0.175017
    28  H    0.139488
    29  H    0.151168
    30  H    0.367876
    31  H    0.368280
    32  H    0.175828
    33  H    0.178655
    34  H    0.179145
 Sum of Mulliken charges =  -0.00000

 Dipole moment (field-independent basis, Debye):
    X=              6.3228    Y=              3.4291    Z=              1.3031  Tot=              7.3099
 Quadrupole moment (field-independent basis, Debye-Ang):
   XX=            -98.2652   YY=           -121.2315   ZZ=           -116.6447
   XY=            -13.2188   XZ=             -3.6919   YZ=             -2.8934

  Exact polarizability: 285.270   9.771 143.376   5.121 -23.038 120.013
 Approx polarizability: 362.281  27.096 236.898  12.338 -63.899 208.930

                      1                      2                      3
                      A                      A                      A
 Frequencies --     26.4567                32.5687                52.1812
 Red. masses --      4.7942                 4.7843                 4.4063
 Frc consts  --      0.0020                 0.0030                 0.0071
 IR Inten    --      0.3887                 0.6160                 0.7068

                      4                      5                      6
                      A                      A                      A
 Frequencies --     72.3061                79.5650                85.8902
 Red. masses --      1.7392                 4.0020                 4.5512
 Frc consts  --      0.0054                 0.0149                 0.0198
 IR Inten    --      0.1566                 3.2388                 0.4755

                      7                      8                      9
                      A                      A                      A
 Frequencies --    105.0989               119.5075               137.2275
 Red. masses --      2.2681                 1.8376                 3.4293
 Frc consts  --      0.0148                 0.0155                 0.0380
 IR Inten    --      0.2853                 2.7748                 4.2333

                     10                     11                     12
                      A                      A                      A
 Frequencies --    154.6541               165.8363               194.3068
 Red. masses --      4.0567                 5.0768                 4.8830
 Frc consts  --      0.0572                 0.0823                 0.1086
 IR Inten    --      1.5073                 5.8798                 5.5595

                     13                     14                     15
                      A                      A                      A
 Frequencies --    216.4192               232.8932               251.3305
 Red. masses --      7.2398                 5.2398                 1.1357
 Frc consts  --      0.1998                 0.1674                 0.0423
 IR Inten    --      1.2747                 1.7958                 0.0509

                     16                     17                     18
                      A                      A                      A
 Frequencies --    262.2788               303.1522               328.3777
 Red. masses --      4.8220                 5.0717                 6.0782
 Frc consts  --      0.1954                 0.2746                 0.3862
 IR Inten    --     22.3684                 0.5479                11.2683

                     19                     20                     21
                      A                      A                      A
 Frequencies --    351.4381               368.6253               386.7628
 Red. masses --      5.9354                 5.6301                 6.0612
 Frc consts  --      0.4319                 0.4507                 0.5342
 IR Inten    --      5.0889                 6.9654                 8.9680

                     22                     23                     24
                      A                      A                      A
 Frequencies --    406.8048               442.4843               456.0991
 Red. masses --      5.6606                 3.3929                 6.7434
 Frc consts  --      0.5519                 0.3914                 0.8265
 IR Inten    --     11.6702                 1.4794                12.9817

                     25                     26                     27
                      A                      A                      A
 Frequencies --    532.1183               568.4242               587.9575
 Red. masses --      5.7973                 1.1111                 1.4279
 Frc consts  --      0.9672                 0.2115                 0.2908
 IR Inten    --     16.3267               148.4529                44.5303

                     28                     29                     30
                      A                      A                      A
 Frequencies --    593.8879               623.3614               692.3111
 Red. masses --      6.1020                 3.0035                 6.5075
 Frc consts  --      1.2680                 0.6876                 1.8377
 IR Inten    --      5.1314                27.7030                 4.1062

                     31                     32                     33
                      A                      A                      A
 Frequencies --    719.2044               720.2817               737.5394
 Red. masses --      5.2750                 5.0427                 5.6228
 Frc consts  --      1.6076                 1.5414                 1.8021
 IR Inten    --      8.0546                12.8684                 3.2151

                     34                     35                     36
                      A                      A                      A
 Frequencies --    750.6658               755.6747               766.8391
 Red. masses --      9.1763                 1.1334                 5.0021
 Frc consts  --      3.0466                 0.3813                 1.7331
 IR Inten    --     16.9004                11.2353                 6.4861

                     37                     38                     39
                      A                      A                      A
 Frequencies --    768.8655               826.2293               865.5069
 Red. masses --      6.1354                 1.4088                 3.8261
 Frc consts  --      2.1370                 0.5666                 1.6887
 IR Inten    --     14.2423                26.6519                 4.2331

                     40                     41                     42
                      A                      A                      A
 Frequencies --    879.5180               894.7020               917.1027
 Red. masses --      1.2485                 1.3895                 1.9348
 Frc consts  --      0.5690                 0.6553                 0.9588
 IR Inten    --      7.9388                 7.8137                 1.3492

                     43                     44                     45
                      A                      A                      A
 Frequencies --    928.4913               956.9835               988.4027
 Red. masses --      6.0588                 1.2702                 6.2990
 Frc consts  --      3.0774                 0.6854                 3.6257
 IR Inten    --      8.2969                 0.1647                 7.1438

                     46                     47                     48
                      A                      A                      A
 Frequencies --   1034.7101              1044.2606              1062.4731
 Red. masses --      7.8571                 2.9753                 4.2977
 Frc consts  --      4.9562                 1.9116                 2.8584
 IR Inten    --     15.2516                20.8894                80.1881

                     49                     50                     51
                      A                      A                      A
 Frequencies --   1069.5930              1078.2844              1116.3542
 Red. masses --      2.5584                 1.3285                 3.2567
 Frc consts  --      1.7245                 0.9101                 2.3913
 IR Inten    --     57.4969                 7.9287                27.0743

                     52                     53                     54
                      A                      A                      A
 Frequencies --   1118.8726              1156.3788              1187.8444
 Red. masses --      1.9993                 1.3362                 1.2618
 Frc consts  --      1.4747                 1.0527                 1.0489
 IR Inten    --      7.0035                 3.7639                 0.6329

                     55                     56                     57
                      A                      A                      A
 Frequencies --   1218.8514              1226.1427              1252.3207
 Red. masses --      1.7937                 1.5191                 1.4230
 Frc consts  --      1.5700                 1.3456                 1.3149
 IR Inten    --      8.0506                21.6366                 1.0539

                     58                     59                     60
                      A                      A                      A
 Frequencies --   1258.0431              1261.3726              1269.9704
 Red. masses --      2.7932                 2.6481                 1.3118
 Frc consts  --      2.6046                 2.4824                 1.2465
 IR Inten    --    177.5185               535.8400                 4.0457

                     61                     62                     63
                      A                      A                      A
 Frequencies --   1279.6960              1329.5195              1339.1476
 Red. masses --      1.7921                 3.9293                 1.1104
 Frc consts  --      1.7292                 4.0921                 1.1732
 IR Inten    --    144.6379                74.7030                 0.7070

                     64                     65                     66
                      A                      A                      A
 Frequencies --   1390.7215              1411.9970              1440.5347
 Red. masses --      1.4363                 3.6903                 1.2279
 Frc consts  --      1.6368                 4.3349                 1.5013
 IR Inten    --      2.2054                14.1904                 0.6463

                     67                     68                     69
                      A                      A                      A
 Frequencies --   1465.1008              1469.1530              1493.1942
 Red. masses --      2.4566                 3.2739                 1.1267
 Frc consts  --      3.1069                 4.1634                 1.4802
 IR Inten    --    272.6920                 9.6735                 4.1695

                     70                     71                     72
                      A                      A                      A
 Frequencies --   1499.2058              1512.0250              1513.3409
 Red. masses --      1.9684                 2.8128                 1.0476
 Frc consts  --      2.6066                 3.7889                 1.4136
 IR Inten    --      2.0919               174.7630                 6.8417

                     73                     74                     75
                      A                      A                      A
 Frequencies --   1523.9252              1525.8113              1529.4389
 Red. masses --      1.0505                 1.1292                 1.0403
 Frc consts  --      1.4374                 1.5489                 1.4338
 IR Inten    --      3.2541                 9.6196                 6.2174

                     76                     77                     78
                      A                      A                      A
 Frequencies --   1537.7350              1539.1966              1621.3976
 Red. masses --      2.5196                 1.0867                 5.4385
 Frc consts  --      3.5103                 1.5168                 8.4239
 IR Inten    --     77.2044                 4.2623               439.5497

                     79                     80                     81
                      A                      A                      A
 Frequencies --   1632.0824              1690.0946              1805.1330
 Red. masses --      7.2521                 5.8463                 9.7387
 Frc consts  --     11.3815                 9.8390                18.6969
 IR Inten    --    185.1975               369.3549               232.3826

                     82                     83                     84
                      A                      A                      A
 Frequencies --   3043.0505              3046.8800              3062.0947
 Red. masses --      1.0626                 1.0360                 1.0585
 Frc consts  --      5.7974                 5.6664                 5.8476
 IR Inten    --     10.0532                34.0432                16.1531

                     85                     86                     87
                      A                      A                      A
 Frequencies --   3081.3143              3084.9036              3113.3493
 Red. masses --      1.0295                 1.0983                 1.1048
 Frc consts  --      5.7591                 6.1583                 6.3093
 IR Inten    --     38.3103                 3.4713                11.4310

                     88                     89                     90
                      A                      A                      A
 Frequencies --   3117.6188              3123.9164              3159.2666
 Red. masses --      1.1023                 1.1063                 1.1084
 Frc consts  --      6.3123                 6.3607                 6.5179
 IR Inten    --     32.2811                45.2550                17.8442

                     91                     92                     93
                      A                      A                      A
 Frequencies --   3190.5766              3198.7738              3205.0565
 Red. masses --      1.1073                 1.0885                 1.0909
 Frc consts  --      6.6414                 6.5624                 6.6024
 IR Inten    --     14.8072                 8.0911                 1.0488

                     94                     95                     96
                      A                      A                      A
 Frequencies --   3213.9578              3609.6115              3626.2263
 Red. masses --      1.0933                 1.0812                 1.0775
 Frc consts  --      6.6539                 8.2997                 8.3483
 IR Inten    --      8.9882               192.2208                78.4275

 - Thermochemistry -
 -------------------
 Temperature     0.001 Kelvin.  Pressure   1.00000 Atm.
 Atom     1 has atomic number  6 and mass  12.00000

 Molecular mass:   281.08341 amu.
 Principal axes and moments of inertia in atomic units:
                           1         2         3
     Eigenvalues --  2039.62293********************
           X            0.99988  -0.01452  -0.00472
           Y            0.01454   0.99988   0.00504
           Z            0.00465  -0.00511   0.99998
 This molecule is an asymmetric top.
 Rotational symmetry number  1.
 Warning -- assumption of classical behavior for rotation
           may cause significant error
 Rotational temperatures (Kelvin)      0.04247     0.00594     0.00555
 Rotational constants (GHZ):           0.88484     0.12386     0.11568
 Zero-point vibrational energy     706316.2 (Joules/Mol)
                                  168.81363 (Kcal/Mol)
 Vibrational temperatures:     38.07    46.86    75.08   104.03   114.48
          (Kelvin)            123.58   151.21   171.94   197.44   222.51
                              238.60   279.56   311.38   335.08   361.61
                              377.36   436.17   472.46   505.64   530.37
                              556.47   585.30   636.64   656.22   765.60
                              817.84   845.94   854.47   896.88   996.08
                             1034.77  1036.32  1061.15  1080.04  1087.25
                             1103.31  1106.23  1188.76  1245.27  1265.43
                             1287.28  1319.51  1335.89  1376.89  1422.09
                             1488.72  1502.46  1528.66  1538.91  1551.41
                             1606.18  1609.81  1663.77  1709.04  1753.66
                             1764.15  1801.81  1810.04  1814.83  1827.20
                             1841.20  1912.88  1926.73  2000.94  2031.55
                             2072.61  2107.95  2113.78  2148.37  2157.02
                             2175.47  2177.36  2192.59  2195.30  2200.52
                             2212.46  2214.56  2332.83  2348.20  2431.67
                             2597.18  4378.27  4383.78  4405.67  4433.32
                             4438.49  4479.42  4485.56  4494.62  4545.48
                             4590.53  4602.32  4611.36  4624.17  5193.43
                             5217.33

 Zero-point correction=                           0.269022 (Hartree/Particle)
 Thermal correction to Energy=                    0.269022
 Thermal correction to Enthalpy=                  0.269022
 Thermal correction to Gibbs Free Energy=         0.269022
 Sum of electronic and zero-point Energies=          -1254.154433
 Sum of electronic and thermal Energies=             -1254.154433
 Sum of electronic and thermal Enthalpies=           -1254.154433
 Sum of electronic and thermal Free Energies=        -1254.154433

                     E (Thermal)             CV                S
                      KCal/Mol        Cal/Mol-Kelvin    Cal/Mol-Kelvin
 Total                  168.814              5.962            -22.906
 Electronic               0.000              0.000              0.000
 Translational            0.000              2.981            -19.825
 Rotational               0.000              2.981             -3.081
 Vibrational            168.814              0.000              0.000

 Optimization completed.
    -- Stationary point found.
 Normal termination of Gaussian 16 at Mon Oct 14 13:46:33 2019.
