 Gaussian 16, Revision A.03,
 Gaussian 16:  ES64L-G16RevA.03 25-Dec-2016

 --------------------------------------------------------------
 #P opt freq b3lyp/6-31g(d) geom=connectivity temperature=0.001
 --------------------------------------------------------------

 ------------------
 ricobenzadole plus
 ------------------
 Symbolic Z-matrix:
 Charge =  1 Multiplicity = 1

 SCF Done:  E(RB3LYP) =  -1254.71846385     A.U. after   15 cycles
 SCF Done:  E(RB3LYP) =  -1254.75943051     A.U. after   13 cycles
 SCF Done:  E(RB3LYP) =  -1254.78244893     A.U. after   13 cycles
 SCF Done:  E(RB3LYP) =  -1254.78902258     A.U. after   13 cycles
 SCF Done:  E(RB3LYP) =  -1254.79478246     A.U. after   13 cycles
 SCF Done:  E(RB3LYP) =  -1254.79776932     A.U. after   13 cycles
 SCF Done:  E(RB3LYP) =  -1254.79827261     A.U. after   11 cycles
 SCF Done:  E(RB3LYP) =  -1254.79857587     A.U. after   12 cycles
 SCF Done:  E(RB3LYP) =  -1254.79944726     A.U. after   11 cycles
 SCF Done:  E(RB3LYP) =  -1254.78996710     A.U. after   13 cycles
 SCF Done:  E(RB3LYP) =  -1254.80788762     A.U. after   11 cycles
 SCF Done:  E(RB3LYP) =  -1254.80798459     A.U. after   10 cycles
 SCF Done:  E(RB3LYP) =  -1254.80801415     A.U. after   10 cycles
 SCF Done:  E(RB3LYP) =  -1254.80801624     A.U. after    8 cycles
 SCF Done:  E(RB3LYP) =  -1254.80801715     A.U. after    8 cycles
 SCF Done:  E(RB3LYP) =  -1254.80801747     A.U. after    8 cycles
 SCF Done:  E(RB3LYP) =  -1254.80801774     A.U. after    8 cycles
 SCF Done:  E(RB3LYP) =  -1254.80801789     A.U. after    7 cycles
 SCF Done:  E(RB3LYP) =  -1254.80801792     A.U. after    7 cycles
 Optimization completed.
    -- Stationary point found.
 Normal termination of Gaussian 16 at Mon Oct 14 13:46:49 2019.

 --------------------------------------------------------------------
 #P Geom=AllCheck Guess=TCheck SCRF=Check GenChk RB3LYP/6-31G(d) Freq
 --------------------------------------------------------------------

 Structure from the checkpoint file:  "14_p.chk"
 ------------------
 ricobenzadole plus
 ------------------
 Charge =  1 Multiplicity = 1

                         Standard orientation:
 ---------------------------------------------------------------------
 Center     Atomic      Atomic             Coordinates (Angstroms)
 Number     Number       Type             X           Y           Z
 ---------------------------------------------------------------------
      1          6           0       -5.339125    2.780429   -0.451156
      2          6           0       -4.701854    0.400826    0.064501
      3          6           0       -4.374155    1.633199   -0.783466
      4         16           0       -3.640584   -1.027659   -0.369801
      5          6           0       -2.008680   -0.598770    0.097208
      6          8           0       -4.228766   -2.035290    0.819344
      7          6           0       -1.707001   -0.036705    1.361054
      8          6           0       -0.392316    0.265658    1.686901
      9          6           0        0.585827   -0.003340    0.724654
     10          6           0        0.289065   -0.574915   -0.549228
     11          6           0       -1.027047   -0.890497   -0.869354
     12          7           0        1.945075    0.170217    0.715148
     13          6           0        2.388709   -0.284715   -0.509537
     14          7           0        1.437485   -0.736703   -1.295108
     15          7           0        3.716164   -0.258131   -0.856712
     16          6           0        4.734602    0.214364   -0.038433
     17          8           0        5.902720    0.101044   -0.665831
     18          8           0        4.554681    0.660586    1.082325
     19          6           0        7.060268    0.557987    0.073960
     20          1           0       -5.096067    3.658341   -1.056455
     21          1           0       -6.377862    2.504918   -0.661964
     22          1           0       -5.269352    3.070112    0.602963
     23          1           0       -5.716875    0.032379   -0.114513
     24          1           0       -4.578973    0.575795    1.137766
     25          1           0       -4.449480    1.382842   -1.848676
     26          1           0       -3.341469    1.946731   -0.595732
     27          1           0       -2.492099    0.137618    2.088819
     28          1           0       -0.142918    0.689500    2.654102
     29          1           0       -1.274367   -1.332534   -1.829353
     30          1           0        2.579402    0.544029    1.417284
     31          1           0        3.948184   -0.614420   -1.776241
     32          1           0        7.904185    0.387282   -0.592269
     33          1           0        6.958827    1.618986    0.310254
     34          1           0        7.167884   -0.018720    0.994649
     35          1           0       -4.139590   -2.959832    0.513566
 ---------------------------------------------------------------------

 SCF Done:  E(RB3LYP) =  -1254.80801792     A.U. after    1 cycles

 The electronic state is 1-A.
 Alpha  occ. eigenvalues --  -89.16338 -19.35734 -19.30320 -19.24755 -14.51164
 Alpha  occ. eigenvalues --  -14.50399 -14.43742 -10.46077 -10.42161 -10.37643
 Alpha  occ. eigenvalues --  -10.36927 -10.36677 -10.34816 -10.34367 -10.34151
 Alpha  occ. eigenvalues --  -10.33465 -10.33354 -10.32816 -10.29415  -8.21351
 Alpha  occ. eigenvalues --   -6.17915  -6.17487  -6.16999  -1.22612  -1.22129
 Alpha  occ. eigenvalues --   -1.15931  -1.13056  -1.06223  -1.01698  -1.00735
 Alpha  occ. eigenvalues --   -0.96832  -0.91535  -0.88559  -0.86848  -0.83490
 Alpha  occ. eigenvalues --   -0.80803  -0.76663  -0.75809  -0.74424  -0.72865
 Alpha  occ. eigenvalues --   -0.71491  -0.68569  -0.68126  -0.65882  -0.64607
 Alpha  occ. eigenvalues --   -0.63586  -0.61657  -0.60516  -0.60230  -0.58729
 Alpha  occ. eigenvalues --   -0.58553  -0.57739  -0.57507  -0.56590  -0.55563
 Alpha  occ. eigenvalues --   -0.53999  -0.53238  -0.52754  -0.52071  -0.51414
 Alpha  occ. eigenvalues --   -0.50809  -0.48897  -0.48009  -0.47385  -0.46742
 Alpha  occ. eigenvalues --   -0.46652  -0.46268  -0.44735  -0.42223  -0.41071
 Alpha  occ. eigenvalues --   -0.40415  -0.40021  -0.37338  -0.34202
 Alpha virt. eigenvalues --   -0.20328  -0.14863  -0.12324  -0.10928  -0.08632
 Alpha virt. eigenvalues --   -0.07831  -0.05409  -0.03819  -0.02820  -0.01588
 Alpha virt. eigenvalues --   -0.00987   0.00298   0.00917   0.01855   0.01999

 Mulliken charges:
               1
     1  C   -0.452515
     2  C   -0.459838
     3  C   -0.294407
     4  S    0.751779
     5  C   -0.162045
     6  O   -0.640788
     7  C   -0.151449
     8  C   -0.142617
     9  C    0.383637
    10  C    0.262579
    11  C   -0.198428
    12  N   -0.739051
    13  C    0.780044
    14  N   -0.558109
    15  N   -0.736444
    16  C    0.835877
    17  O   -0.464256
    18  O   -0.513369
    19  C   -0.228869
    20  H    0.189202
    21  H    0.172724
    22  H    0.168376
    23  H    0.235381
    24  H    0.231012
    25  H    0.180212
    26  H    0.180577
    27  H    0.175427
    28  H    0.185059
    29  H    0.192928
    30  H    0.391730
    31  H    0.384058
    32  H    0.196379
    33  H    0.191661
    34  H    0.191907
    35  H    0.461635
 Sum of Mulliken charges =   1.00000

 Dipole moment (field-independent basis, Debye):
    X=             -5.6305    Y=             -0.9059    Z=              0.1933  Tot=              5.7062
 Quadrupole moment (field-independent basis, Debye-Ang):
   XX=             -7.6574   YY=           -100.4222   ZZ=           -109.5565
   XY=              6.4864   XZ=              0.4742   YZ=              1.3689

  Exact polarizability: 315.360  12.436 119.100  -4.382  15.458 138.075
 Approx polarizability: 408.698  32.004 179.980  -9.366  43.188 254.774

                      1                      2                      3
                      A                      A                      A
 Frequencies --     22.9195                34.0530                50.0405
 Red. masses --      4.5810                 4.4770                 4.5057
 Frc consts  --      0.0014                 0.0031                 0.0066
 IR Inten    --      0.1506                 0.9171                 1.4130

                      4                      5                      6
                      A                      A                      A
 Frequencies --     72.3158                81.4689                87.5912
 Red. masses --      1.7642                 3.4844                 3.8586
 Frc consts  --      0.0054                 0.0136                 0.0174
 IR Inten    --      0.0878                 1.3126                 1.9035

                      7                      8                      9
                      A                      A                      A
 Frequencies --    103.7126               119.2097               131.5320
 Red. masses --      1.9108                 2.3218                 3.6242
 Frc consts  --      0.0121                 0.0194                 0.0369
 IR Inten    --      0.4109                 4.0402                 1.4173

                     10                     11                     12
                      A                      A                      A
 Frequencies --    153.3651               165.2878               198.8289
 Red. masses --      4.5088                 4.1716                 6.2362
 Frc consts  --      0.0625                 0.0671                 0.1453
 IR Inten    --      0.9318                 5.1263                 8.7834

                     13                     14                     15
                      A                      A                      A
 Frequencies --    215.4240               228.6743               246.6815
 Red. masses --      5.0898                 3.7491                 1.1953
 Frc consts  --      0.1392                 0.1155                 0.0429
 IR Inten    --      0.7796                 8.4492                 0.2886

                     16                     17                     18
                      A                      A                      A
 Frequencies --    257.4582               260.8380               310.1499
 Red. masses --      4.6090                 1.5202                 3.7042
 Frc consts  --      0.1800                 0.0609                 0.2099
 IR Inten    --     21.1135               125.9405                11.3676

                     19                     20                     21
                      A                      A                      A
 Frequencies --    343.9598               357.5541               370.4488
 Red. masses --      2.8896                 5.1149                 6.0302
 Frc consts  --      0.2014                 0.3853                 0.4876
 IR Inten    --      6.9584                 3.9101                14.7955

                     22                     23                     24
                      A                      A                      A
 Frequencies --    387.9645               406.7486               434.0236
 Red. masses --      5.4870                 4.5495                 7.7049
 Frc consts  --      0.4866                 0.4435                 0.8551
 IR Inten    --      0.2809                 8.8304                41.0651

                     25                     26                     27
                      A                      A                      A
 Frequencies --    449.1729               526.8996               584.9753
 Red. masses --      3.5020                 5.6725                 1.1798
 Frc consts  --      0.4163                 0.9279                 0.2379
 IR Inten    --      0.2099                26.5162               127.1673

                     28                     29                     30
                      A                      A                      A
 Frequencies --    592.2959               597.6076               680.6556
 Red. masses --      6.3425                 3.8679                 1.2988
 Frc consts  --      1.3110                 0.8139                 0.3545
 IR Inten    --     10.6425                 6.1525                75.2929

                     31                     32                     33
                      A                      A                      A
 Frequencies --    695.0565               720.7774               730.1403
 Red. masses --      5.7112                 5.9716                 5.9275
 Frc consts  --      1.6256                 1.8279                 1.8618
 IR Inten    --      1.4422                 5.8971                 0.3081

                     34                     35                     36
                      A                      A                      A
 Frequencies --    745.8394               747.0301               757.8044
 Red. masses --      6.3772                 3.5607                 1.2108
 Frc consts  --      2.0901                 1.1707                 0.4097
 IR Inten    --     23.4354                 2.6341                12.3844

                     37                     38                     39
                      A                      A                      A
 Frequencies --    760.1375               763.8630               773.7785
 Red. masses --      4.4084                 7.3896                 6.5428
 Frc consts  --      1.5008                 2.5404                 2.3080
 IR Inten    --     27.8324               172.6487                10.8015

                     40                     41                     42
                      A                      A                      A
 Frequencies --    808.6024               866.9838               883.5382
 Red. masses --      1.7135                 3.7822                 1.2345
 Frc consts  --      0.6601                 1.6750                 0.5678
 IR Inten    --     20.0472                21.3719                 4.7310

                     43                     44                     45
                      A                      A                      A
 Frequencies --    892.5490               915.7214               933.4985
 Red. masses --      1.3883                 1.9157                 5.5666
 Frc consts  --      0.6516                 0.9465                 2.8581
 IR Inten    --     12.4537                 4.5975                 2.3951

                     46                     47                     48
                      A                      A                      A
 Frequencies --    943.6444               978.4714              1026.1473
 Red. masses --      1.3097                 6.4132                 7.7675
 Frc consts  --      0.6871                 3.6176                 4.8189
 IR Inten    --      1.0539                31.1440                 5.0041

                     49                     50                     51
                      A                      A                      A
 Frequencies --   1035.3041              1065.8435              1101.2944
 Red. masses --      3.1370                 2.4128                 1.5357
 Frc consts  --      1.9811                 1.6150                 1.0974
 IR Inten    --      1.4231               128.2917                16.1490

                     52                     53                     54
                      A                      A                      A
 Frequencies --   1104.8783              1117.4401              1171.6002
 Red. masses --      2.1531                 1.8610                 1.3677
 Frc consts  --      1.5486                 1.3692                 1.1061
 IR Inten    --      6.0823                 3.2708                 2.5625

                     55                     56                     57
                      A                      A                      A
 Frequencies --   1185.4503              1215.8467              1224.3039
 Red. masses --      1.2589                 1.1617                 1.4800
 Frc consts  --      1.0424                 1.0118                 1.3070
 IR Inten    --      0.8325               104.2288                 2.8549

                     58                     59                     60
                      A                      A                      A
 Frequencies --   1226.7467              1254.4249              1270.3927
 Red. masses --      1.5373                 1.3557                 3.3062
 Frc consts  --      1.3631                 1.2569                 3.1438
 IR Inten    --     15.6723                 0.8022               221.0177

                     61                     62                     63
                      A                      A                      A
 Frequencies --   1272.8151              1288.6089              1295.4140
 Red. masses --      2.9547                 1.3010                 1.6957
 Frc consts  --      2.8203                 1.2729                 1.6766
 IR Inten    --    639.9854                 4.6354               287.3406

                     64                     65                     66
                      A                      A                      A
 Frequencies --   1341.8747              1349.0237              1389.3079
 Red. masses --      1.0960                 4.1287                 1.3886
 Frc consts  --      1.1628                 4.4270                 1.5791
 IR Inten    --      2.2904               174.8484                 5.9578

                     67                     68                     69
                      A                      A                      A
 Frequencies --   1429.4155              1444.1220              1447.2279
 Red. masses --      3.0180                 4.7984                 1.2078
 Frc consts  --      3.6332                 5.8960                 1.4904
 IR Inten    --      3.5127               336.1106                 0.7720

                     70                     71                     72
                      A                      A                      A
 Frequencies --   1475.0785              1489.4675              1490.0545
 Red. masses --      2.8474                 1.5195                 1.1599
 Frc consts  --      3.6503                 1.9861                 1.5174
 IR Inten    --      2.8961                 6.9070                23.2729

                     73                     74                     75
                      A                      A                      A
 Frequencies --   1512.2090              1513.5845              1518.8687
 Red. masses --      3.5409                 1.0469                 1.1640
 Frc consts  --      4.7708                 1.4131                 1.5822
 IR Inten    --     41.9134                 9.9923                87.9022

                     76                     77                     78
                      A                      A                      A
 Frequencies --   1521.1563              1528.3700              1529.0620
 Red. masses --      1.0458                 1.0395                 1.9023
 Frc consts  --      1.4257                 1.4307                 2.6205
 IR Inten    --      3.9809                 8.8589               138.9157

                     79                     80                     81
                      A                      A                      A
 Frequencies --   1536.0416              1612.9708              1620.2038
 Red. masses --      1.0868                 5.5960                 7.2808
 Frc consts  --      1.5108                 8.5778                11.2608
 IR Inten    --      5.4880               259.1115               103.6840

                     82                     83                     84
                      A                      A                      A
 Frequencies --   1695.6021              1811.8286              3059.8381
 Red. masses --      5.8327                 9.2487                 1.0518
 Frc consts  --      9.8803                17.8882                 5.8020
 IR Inten    --    902.5831               218.4798                 3.1683

                     85                     86                     87
                      A                      A                      A
 Frequencies --   3064.2541              3089.6015              3092.3515
 Red. masses --      1.0450                 1.0579                 1.0292
 Frc consts  --      5.7814                 5.9500                 5.7988
 IR Inten    --     20.7676                 1.7766                24.0640

                     88                     89                     90
                      A                      A                      A
 Frequencies --   3102.7438              3132.9445              3144.8656
 Red. masses --      1.1033                 1.1046                 1.1023
 Frc consts  --      6.2581                 6.3880                 6.4232
 IR Inten    --      2.7342                21.1585                 9.3692

                     91                     92                     93
                      A                      A                      A
 Frequencies --   3151.8712              3176.4389              3208.7962
 Red. masses --      1.1089                 1.1093                 1.1082
 Frc consts  --      6.4906                 6.5946                 6.7227
 IR Inten    --      2.3208                10.8137                 7.0386

                     94                     95                     96
                      A                      A                      A
 Frequencies --   3217.3110              3221.9450              3230.1000
 Red. masses --      1.0884                 1.0922                 1.0957
 Frc consts  --      6.6377                 6.6804                 6.7357
 IR Inten    --      0.0741                 0.9585                 0.3760

                     97                     98                     99
                      A                      A                      A
 Frequencies --   3543.5966              3612.3241              3675.0419
 Red. masses --      1.0824                 1.0780                 1.0675
 Frc consts  --      8.0079                 8.2878                 8.4945
 IR Inten    --    344.6546               115.1650               188.3839

 - Thermochemistry -
 -------------------
 Temperature     0.001 Kelvin.  Pressure   1.00000 Atm.
 Atom     1 has atomic number  6 and mass  12.00000

 Molecular mass:   282.09124 amu.
 Principal axes and moments of inertia in atomic units:
                           1         2         3
     Eigenvalues --  1839.24336********************
           X            0.99994  -0.01035   0.00214
           Y            0.01038   0.99985  -0.01372
           Z           -0.00199   0.01374   0.99990
 This molecule is an asymmetric top.
 Rotational symmetry number  1.
 Warning -- assumption of classical behavior for rotation
           may cause significant error
 Rotational temperatures (Kelvin)      0.04709     0.00559     0.00544
 Rotational constants (GHZ):           0.98124     0.11644     0.11339
 Zero-point vibrational energy     737051.0 (Joules/Mol)
                                  176.15941 (Kcal/Mol)
 Vibrational temperatures:     32.98    48.99    72.00   104.05   117.22
          (Kelvin)            126.02   149.22   171.52   189.25   220.66
                              237.81   286.07   309.95   329.01   354.92
                              370.42   375.29   446.24   494.88   514.44
                              532.99   558.19   585.22   624.46   646.26
                              758.09   841.65   852.18   859.82   979.31
                             1000.03  1037.04  1050.51  1073.10  1074.81
                             1090.31  1093.67  1099.03  1113.29  1163.40
                             1247.40  1271.21  1284.18  1317.52  1343.10
                             1357.69  1407.80  1476.40  1489.57  1533.51
                             1584.52  1589.67  1607.75  1685.67  1705.60
                             1749.33  1761.50  1765.01  1804.84  1827.81
                             1831.30  1854.02  1863.81  1930.66  1940.94
                             1998.90  2056.61  2077.77  2082.24  2122.31
                             2143.01  2143.86  2175.73  2177.71  2185.31
                             2188.60  2198.98  2199.98  2210.02  2320.71
                             2331.11  2439.59  2606.82  4402.42  4408.78
                             4445.25  4449.20  4464.16  4507.61  4524.76
                             4534.84  4570.19  4616.74  4628.99  4635.66
                             4647.39  5098.45  5197.33  5287.57

 Zero-point correction=                           0.280728 (Hartree/Particle)
 Thermal correction to Energy=                    0.280728
 Thermal correction to Enthalpy=                  0.280728
 Thermal correction to Gibbs Free Energy=         0.280728
 Sum of electronic and zero-point Energies=          -1254.527290
 Sum of electronic and thermal Energies=             -1254.527290
 Sum of electronic and thermal Enthalpies=           -1254.527290
 Sum of electronic and thermal Free Energies=        -1254.527290

                     E (Thermal)             CV                S
                      KCal/Mol        Cal/Mol-Kelvin    Cal/Mol-Kelvin
 Total                  176.159              5.962            -22.916
 Electronic               0.000              0.000              0.000
 Translational            0.000              2.981            -19.814
 Rotational               0.000              2.981             -3.102
 Vibrational            176.159              0.000              0.000

                           ! Non-Optimized Parameters !
 Normal termination of Gaussian 16 at Mon Oct 14 13:48:38 2019.
