 Gaussian 16, Revision A.03,
 Gaussian 16:  ES64L-G16RevA.03 25-Dec-2016

 --------------------------------------------------------------
 #p opt freq b3lyp/6-31g(d) geom=connectivity temperature=0.001
 --------------------------------------------------------------

 --------------------------------
 pyridone_1_acetic_acid no iodine
 --------------------------------
 Symbolic Z-matrix:
 Charge =  0 Multiplicity = 1

 SCF Done:  E(RB3LYP) =  -551.338441612     A.U. after   17 cycles
 SCF Done:  E(RB3LYP) =  -551.363490831     A.U. after   14 cycles
 SCF Done:  E(RB3LYP) =  -551.370170128     A.U. after   14 cycles
 SCF Done:  E(RB3LYP) =  -551.370585035     A.U. after   13 cycles
 SCF Done:  E(RB3LYP) =  -551.370912714     A.U. after   13 cycles
 SCF Done:  E(RB3LYP) =  -551.371123289     A.U. after   14 cycles
 SCF Done:  E(RB3LYP) =  -551.371545904     A.U. after   12 cycles
 SCF Done:  E(RB3LYP) =  -551.371805457     A.U. after   13 cycles
 SCF Done:  E(RB3LYP) =  -551.371830642     A.U. after   12 cycles
 SCF Done:  E(RB3LYP) =  -551.371839448     A.U. after   11 cycles
 SCF Done:  E(RB3LYP) =  -551.373185075     A.U. after   15 cycles
 SCF Done:  E(RB3LYP) =  -551.368914032     A.U. after   15 cycles
 SCF Done:  E(RB3LYP) =  -551.373562187     A.U. after   13 cycles
 SCF Done:  E(RB3LYP) =  -551.373613839     A.U. after   15 cycles
 SCF Done:  E(RB3LYP) =  -551.373687707     A.U. after   12 cycles
 SCF Done:  E(RB3LYP) =  -551.373700780     A.U. after   13 cycles
 SCF Done:  E(RB3LYP) =  -551.373702659     A.U. after   11 cycles
 SCF Done:  E(RB3LYP) =  -551.373702829     A.U. after    9 cycles
 SCF Done:  E(RB3LYP) =  -551.373702877     A.U. after    9 cycles
 Optimization completed.
    -- Stationary point found.
 Normal termination of Gaussian 16 at Mon Oct 14 13:43:49 2019.

 --------------------------------------------------------------------
 #P Geom=AllCheck Guess=TCheck SCRF=Check GenChk RB3LYP/6-31G(d) Freq
 --------------------------------------------------------------------

 Structure from the checkpoint file:  "06_no_iodine.chk"
 --------------------------------
 pyridone_1_acetic_acid no iodine
 --------------------------------
 Charge =  0 Multiplicity = 1

                         Standard orientation:
 ---------------------------------------------------------------------
 Center     Atomic      Atomic             Coordinates (Angstroms)
 Number     Number       Type             X           Y           Z
 ---------------------------------------------------------------------
      1          6           0       -1.835229    1.223903   -0.035144
      2          6           0       -0.532972    1.186943   -0.406770
      3          7           0        0.136349   -0.000653   -0.620000
      4          6           0       -0.533312   -1.187778   -0.405260
      5          6           0       -1.835583   -1.223893   -0.033596
      6          6           0       -2.614109    0.000254    0.183833
      7          8           0       -3.802887    0.000637    0.513259
      8          6           0        1.550221   -0.000996   -0.928217
      9          6           0        2.437395    0.000241    0.317488
     10          8           0        2.052334    0.001299    1.459433
     11          8           0        3.739758    0.000038   -0.048305
     12          1           0        1.800388    0.875061   -1.535502
     13          1           0        1.800319   -0.878337   -1.533667
     14          1           0        0.056856    2.083804   -0.568132
     15          1           0        0.056265   -2.085014   -0.565443
     16          1           0        4.262975    0.000880    0.775762
     17          1           0       -2.331992   -2.177315    0.110324
     18          1           0       -2.331360    2.177652    0.107561
 ---------------------------------------------------------------------

 SCF Done:  E(RB3LYP) =  -551.373702877     A.U. after    1 cycles

 The electronic state is 1-A.
 Alpha  occ. eigenvalues --  -19.22647 -19.17056 -19.08586 -14.41473 -10.35179
 Alpha  occ. eigenvalues --  -10.27600 -10.24760 -10.24759 -10.24422 -10.18706
 Alpha  occ. eigenvalues --  -10.18705  -1.13545  -1.04816  -1.00700  -0.98560
 Alpha  occ. eigenvalues --   -0.82220  -0.78500  -0.75056  -0.65317  -0.65124
 Alpha  occ. eigenvalues --   -0.60955  -0.54243  -0.53764  -0.51952  -0.50391
 Alpha  occ. eigenvalues --   -0.48630  -0.47714  -0.45268  -0.44082  -0.43239
 Alpha  occ. eigenvalues --   -0.42481  -0.40488  -0.37402  -0.37377  -0.34983
 Alpha  occ. eigenvalues --   -0.34893  -0.30706  -0.27983  -0.21639  -0.21546
 Alpha virt. eigenvalues --   -0.02371  -0.01571  -0.00408   0.04931   0.05950
 Alpha virt. eigenvalues --    0.10120   0.11205   0.14215   0.14976   0.15000
 Alpha virt. eigenvalues --    0.16965   0.18451   0.19986   0.23442   0.27121

 Mulliken charges:
               1
     1  C   -0.234917
     2  C    0.086663
     3  N   -0.387186
     4  C    0.086650
     5  C   -0.234913
     6  C    0.454183
     7  O   -0.543784
     8  C   -0.267897
     9  C    0.574268
    10  O   -0.423980
    11  O   -0.559323
    12  H    0.205745
    13  H    0.205743
    14  H    0.159357
    15  H    0.159356
    16  H    0.421521
    17  H    0.149257
    18  H    0.149258
 Sum of Mulliken charges =  -0.00000

 Dipole moment (field-independent basis, Debye):
    X=              7.2590    Y=             -0.0028    Z=             -2.6950  Tot=              7.7431
 Quadrupole moment (field-independent basis, Debye-Ang):
   XX=            -74.4108   YY=            -54.7031   ZZ=            -65.0706
   XY=              0.0053   XZ=              3.4696   YZ=             -0.0069

  Exact polarizability: 125.097  -0.012  75.361 -15.792  -0.009  53.224
 Approx polarizability: 208.371  -0.038 113.652 -42.811  -0.004  89.897

                      1                      2                      3
                      A                      A                      A
 Frequencies --     19.7706                50.6900                55.6904
 Red. masses --      7.2825                 4.5849                 9.3523
 Frc consts  --      0.0017                 0.0069                 0.0171
 IR Inten    --      0.8694                 0.9378                 1.0212

                      4                      5                      6
                      A                      A                      A
 Frequencies --    149.8471               289.4131               339.7184
 Red. masses --      7.0354                 7.2909                 8.1134
 Frc consts  --      0.0931                 0.3598                 0.5517
 IR Inten    --      6.4396                 2.1501                 0.5035

                      7                      8                      9
                      A                      A                      A
 Frequencies --    343.2727               416.3621               462.3720
 Red. masses --      2.5634                 3.2370                 2.7526
 Frc consts  --      0.1780                 0.3306                 0.3467
 IR Inten    --      0.6133                 0.0169                 8.8397

                     10                     11                     12
                      A                      A                      A
 Frequencies --    467.3711               507.1210               528.0656
 Red. masses --      3.7642                 1.8934                 5.7243
 Frc consts  --      0.4844                 0.2869                 0.9405
 IR Inten    --     10.8364                15.5692                65.2203

                     13                     14                     15
                      A                      A                      A
 Frequencies --    638.7575               652.9623               674.0471
 Red. masses --      4.6649                 5.0427                 1.5351
 Frc consts  --      1.1214                 1.2667                 0.4109
 IR Inten    --     29.7359                10.5143                98.0979

                     16                     17                     18
                      A                      A                      A
 Frequencies --    718.8260               795.3596               817.0783
 Red. masses --      2.9630                 1.2803                 4.5538
 Frc consts  --      0.9021                 0.4772                 1.7912
 IR Inten    --      0.7466                 0.0697                19.2330

                     19                     20                     21
                      A                      A                      A
 Frequencies --    838.5404               856.8791               868.9291
 Red. masses --      5.3512                 2.2679                 3.5195
 Frc consts  --      2.2169                 0.9811                 1.5657
 IR Inten    --      4.3093                54.8751                11.9171

                     22                     23                     24
                      A                      A                      A
 Frequencies --    956.0688               960.0510               990.2337
 Red. masses --      1.2695                 1.2432                 2.3590
 Frc consts  --      0.6837                 0.6751                 1.3629
 IR Inten    --      0.0060                 0.4629                 5.1655

                     25                     26                     27
                      A                      A                      A
 Frequencies --   1019.8613              1110.4137              1166.7486
 Red. masses --      2.7609                 1.7147                 2.7851
 Frc consts  --      1.6919                 1.2457                 2.2338
 IR Inten    --      1.0376                 5.5234               395.6414

                     28                     29                     30
                      A                      A                      A
 Frequencies --   1221.8329              1245.1261              1264.1886
 Red. masses --      1.1869                 1.2717                 3.0618
 Frc consts  --      1.0440                 1.1616                 2.8830
 IR Inten    --     25.9511                 1.9136                95.1292

                     31                     32                     33
                      A                      A                      A
 Frequencies --   1265.2662              1334.5541              1410.6569
 Red. masses --      1.6439                 1.5837                 1.5078
 Frc consts  --      1.5506                 1.6618                 1.7679
 IR Inten    --     13.2570                43.5410                 8.9750

                     34                     35                     36
                      A                      A                      A
 Frequencies --   1426.9857              1457.7802              1493.7766
 Red. masses --      1.9470                 1.8188                 1.1525
 Frc consts  --      2.3359                 2.2773                 1.5151
 IR Inten    --     19.7243                14.0521                13.7120

                     37                     38                     39
                      A                      A                      A
 Frequencies --   1500.3059              1612.8267              1693.7750
 Red. masses --      4.6411                 5.7972                 5.8305
 Frc consts  --      6.1550                 8.8847                 9.8553
 IR Inten    --     67.8139                 2.5682                12.6405

                     40                     41                     42
                      A                      A                      A
 Frequencies --   1747.4415              1872.8749              3080.5980
 Red. masses --      8.6694                10.3359                 1.0605
 Frc consts  --     15.5971                21.3607                 5.9298
 IR Inten    --    539.4417               228.7246                20.2401

                     43                     44                     45
                      A                      A                      A
 Frequencies --   3124.2597              3207.4253              3209.6034
 Red. masses --      1.1043                 1.0888                 1.0894
 Frc consts  --      6.3509                 6.5994                 6.6123
 IR Inten    --      1.1187                 5.9557                 6.3027

                     46                     47                     48
                      A                      A                      A
 Frequencies --   3232.5621              3234.1081              3684.0263
 Red. masses --      1.0954                 1.0964                 1.0643
 Frc consts  --      6.7439                 6.7567                 8.5102
 IR Inten    --      9.2723                 0.0217                64.1537

 - Thermochemistry -
 -------------------
 Temperature     0.001 Kelvin.  Pressure   1.00000 Atm.
 Atom     1 has atomic number  6 and mass  12.00000

 Molecular mass:   153.04259 amu.
 Principal axes and moments of inertia in atomic units:
                           1         2         3
     Eigenvalues --   554.369673191.803953277.72590
           X            0.99999  -0.00000  -0.00371
           Y            0.00000   1.00000  -0.00028
           Z            0.00371   0.00028   0.99999
 This molecule is an asymmetric top.
 Rotational symmetry number  1.
 Warning -- assumption of classical behavior for rotation
           may cause significant error
 Rotational temperatures (Kelvin)      0.15624     0.02714     0.02643
 Rotational constants (GHZ):           3.25548     0.56543     0.55061
 Zero-point vibrational energy     358966.0 (Joules/Mol)
                                   85.79493 (Kcal/Mol)
 Vibrational temperatures:     28.45    72.93    80.13   215.60   416.40
          (Kelvin)            488.78   493.89   599.05   665.25   672.44
                              729.63   759.77   919.03   939.47   969.80
                             1034.23  1144.35  1175.59  1206.47  1232.86
                             1250.20  1375.57  1381.30  1424.73  1467.35
                             1597.64  1678.69  1757.95  1791.46  1818.89
                             1820.44  1920.13  2029.62  2053.11  2097.42
                             2149.21  2158.61  2320.50  2436.96  2514.18
                             2694.65  4432.29  4495.11  4614.77  4617.90
                             4650.94  4653.16  5300.49

 Zero-point correction=                           0.136723 (Hartree/Particle)
 Thermal correction to Energy=                    0.136723
 Thermal correction to Enthalpy=                  0.136723
 Thermal correction to Gibbs Free Energy=         0.136723
 Sum of electronic and zero-point Energies=           -551.236980
 Sum of electronic and thermal Energies=              -551.236980
 Sum of electronic and thermal Enthalpies=            -551.236980
 Sum of electronic and thermal Free Energies=         -551.236980

                     E (Thermal)             CV                S
                      KCal/Mol        Cal/Mol-Kelvin    Cal/Mol-Kelvin
 Total                   85.795              5.962            -29.071
 Electronic               0.000              0.000              0.000
 Translational            0.000              2.981            -21.637
 Rotational               0.000              2.981             -7.434
 Vibrational             85.795              0.000              0.000

 Optimization completed.
    -- Stationary point found.
 Normal termination of Gaussian 16 at Mon Oct 14 13:44:17 2019.
