 Gaussian 16, Revision A.03,
 Gaussian 16:  ES64L-G16RevA.03 25-Dec-2016

 --------------------------------------------------------------
 #p opt freq b3lyp/6-31g(d) geom=connectivity temperature=0.001
 --------------------------------------------------------------

 -------------------------------------
 pyridone_1_acetic_acid no iodine plus
 -------------------------------------
 Symbolic Z-matrix:
 Charge =  1 Multiplicity = 1

 SCF Done:  E(RB3LYP) =  -551.713662489     A.U. after   15 cycles
 SCF Done:  E(RB3LYP) =  -551.742135345     A.U. after   13 cycles
 SCF Done:  E(RB3LYP) =  -551.751690916     A.U. after   13 cycles
 SCF Done:  E(RB3LYP) =  -551.753859725     A.U. after   12 cycles
 SCF Done:  E(RB3LYP) =  -551.755686968     A.U. after   15 cycles
 SCF Done:  E(RB3LYP) =  -551.756793495     A.U. after   12 cycles
 SCF Done:  E(RB3LYP) =  -551.757780087     A.U. after   13 cycles
 SCF Done:  E(RB3LYP) =  -551.759617789     A.U. after   13 cycles
 SCF Done:  E(RB3LYP) =  -551.760359289     A.U. after   13 cycles
 SCF Done:  E(RB3LYP) =  -551.761210505     A.U. after   13 cycles
 SCF Done:  E(RB3LYP) =  -551.761305133     A.U. after   12 cycles
 SCF Done:  E(RB3LYP) =  -551.761364460     A.U. after   12 cycles
 SCF Done:  E(RB3LYP) =  -551.761380362     A.U. after   10 cycles
 SCF Done:  E(RB3LYP) =  -551.761393273     A.U. after   11 cycles
 SCF Done:  E(RB3LYP) =  -551.761394065     A.U. after    8 cycles
 SCF Done:  E(RB3LYP) =  -551.761394186     A.U. after    7 cycles
 Optimization completed.
    -- Stationary point found.
 Normal termination of Gaussian 16 at Mon Oct 14 13:42:46 2019.

 --------------------------------------------------------------------
 #P Geom=AllCheck Guess=TCheck SCRF=Check GenChk RB3LYP/6-31G(d) Freq
 --------------------------------------------------------------------

 Structure from the checkpoint file:  "06_no_iodine_p.chk"
 -------------------------------------
 pyridone_1_acetic_acid no iodine plus
 -------------------------------------
 Charge =  1 Multiplicity = 1

                         Standard orientation:
 ---------------------------------------------------------------------
 Center     Atomic      Atomic             Coordinates (Angstroms)
 Number     Number       Type             X           Y           Z
 ---------------------------------------------------------------------
      1          6           0       -1.659659    1.115963   -0.439273
      2          6           0       -0.341378    0.841350   -0.702083
      3          7           0        0.187020   -0.391395   -0.458988
      4          6           0       -0.588267   -1.369976    0.074176
      5          6           0       -1.915251   -1.156683    0.364548
      6          6           0       -2.479894    0.109205    0.108131
      7          8           0       -3.746872    0.422433    0.347057
      8          6           0        1.618015   -0.628481   -0.716255
      9          6           0        2.486953    0.210123    0.230369
     10          8           0        2.071800    1.133689    0.885484
     11          8           0        3.747309   -0.224977    0.177236
     12          1           0        1.850513   -0.360993   -1.752065
     13          1           0        1.835102   -1.690579   -0.594648
     14          1           0        0.333070    1.582860   -1.109033
     15          1           0       -0.108173   -2.324292    0.254269
     16          1           0        4.299041    0.343701    0.750793
     17          1           0       -2.502235   -1.966755    0.785199
     18          1           0       -2.068749    2.098233   -0.644109
     19          1           0       -4.248725   -0.320582    0.726614
 ---------------------------------------------------------------------

 SCF Done:  E(RB3LYP) =  -551.761394186     A.U. after    1 cycles

 The electronic state is 1-A.
 Alpha  occ. eigenvalues --  -19.37107 -19.34804 -19.29607 -14.61012 -10.48224
 Alpha  occ. eigenvalues --  -10.46364 -10.43775 -10.43112 -10.41859 -10.38914
 Alpha  occ. eigenvalues --  -10.38111  -1.26103  -1.25957  -1.19557  -1.17250
 Alpha  occ. eigenvalues --   -1.01277  -0.97320  -0.92654  -0.85501  -0.83080
 Alpha  occ. eigenvalues --   -0.78543  -0.75558  -0.71051  -0.69132  -0.67661
 Alpha  occ. eigenvalues --   -0.65421  -0.64304  -0.63169  -0.62619  -0.60953
 Alpha  occ. eigenvalues --   -0.59535  -0.58377  -0.57518  -0.55644  -0.53860
 Alpha  occ. eigenvalues --   -0.53717  -0.47062  -0.46163  -0.44355  -0.43009
 Alpha virt. eigenvalues --   -0.22235  -0.19906  -0.14415  -0.09342  -0.09010
 Alpha virt. eigenvalues --   -0.05726  -0.04998  -0.03751  -0.03382  -0.01122
 Alpha virt. eigenvalues --   -0.00145   0.01251   0.02489   0.05903   0.07341

 Mulliken charges:
               1
     1  C   -0.189225
     2  C    0.135224
     3  N   -0.380320
     4  C    0.118720
     5  C   -0.213799
     6  C    0.423695
     7  O   -0.564617
     8  C   -0.284911
     9  C    0.596187
    10  O   -0.415558
    11  O   -0.534674
    12  H    0.252849
    13  H    0.238207
    14  H    0.238572
    15  H    0.234234
    16  H    0.450111
    17  H    0.211423
    18  H    0.231611
    19  H    0.452269
 Sum of Mulliken charges =   1.00000

 Dipole moment (field-independent basis, Debye):
    X=             -1.8656    Y=             -2.9728    Z=             -0.9443  Tot=              3.6346
 Quadrupole moment (field-independent basis, Debye-Ang):
   XX=            -22.1144   YY=            -50.7793   ZZ=            -57.8411
   XY=              5.4784   XZ=             -4.3186   YZ=             -5.3008

  Exact polarizability: 120.398  -5.026  78.708 -10.938  -5.676  48.341
 Approx polarizability: 180.377 -16.750 134.387 -25.065  -8.325  76.467

                      1                      2                      3
                      A                      A                      A
 Frequencies --     45.1467                52.5307                84.2861
 Red. masses --      7.0658                 5.5983                 5.5504
 Frc consts  --      0.0085                 0.0091                 0.0232
 IR Inten    --      1.2941                 0.5443                 1.1942

                      4                      5                      6
                      A                      A                      A
 Frequencies --    183.8326               318.8603               332.6864
 Red. masses --      6.2850                 5.4612                 3.2419
 Frc consts  --      0.1251                 0.3271                 0.2114
 IR Inten    --      3.1993                 2.2306                 1.3829

                      7                      8                      9
                      A                      A                      A
 Frequencies --    348.9689               413.6338               446.0541
 Red. masses --      6.7221                 2.7257                 3.2165
 Frc consts  --      0.4823                 0.2748                 0.3771
 IR Inten    --      4.8006                 7.6454                 9.2179

                     10                     11                     12
                      A                      A                      A
 Frequencies --    508.6465               510.6235               526.0641
 Red. masses --      2.0990                 1.2552                 2.2461
 Frc consts  --      0.3200                 0.1928                 0.3662
 IR Inten    --     64.0324                91.0021                14.0737

                     13                     14                     15
                      A                      A                      A
 Frequencies --    541.3658               646.9128               674.6056
 Red. masses --      4.2670                 3.6756                 3.0053
 Frc consts  --      0.7368                 0.9063                 0.8058
 IR Inten    --     41.1744                47.5399                41.1275

                     16                     17                     18
                      A                      A                      A
 Frequencies --    685.0725               725.3825               821.5510
 Red. masses --      1.9982                 3.9628                 3.9515
 Frc consts  --      0.5525                 1.2285                 1.5714
 IR Inten    --     81.4658                 3.6458                14.3639

                     19                     20                     21
                      A                      A                      A
 Frequencies --    832.5366               854.7632               880.9237
 Red. masses --      1.3264                 1.8415                 3.3489
 Frc consts  --      0.5417                 0.7927                 1.5312
 IR Inten    --      8.9471                32.0384                35.4771

                     22                     23                     24
                      A                      A                      A
 Frequencies --    888.8770               965.3021               972.7100
 Red. masses --      4.7897                 1.3233                 1.3338
 Frc consts  --      2.2297                 0.7265                 0.7436
 IR Inten    --      1.9885                 0.7116                 0.6583

                     25                     26                     27
                      A                      A                      A
 Frequencies --   1000.0681              1058.0064              1143.3804
 Red. masses --      2.2548                 2.4688                 1.6064
 Frc consts  --      1.3287                 1.6282                 1.2374
 IR Inten    --      3.3936                 1.1248                68.6545

                     28                     29                     30
                      A                      A                      A
 Frequencies --   1188.6624              1202.6691              1225.5282
 Red. masses --      2.2425                 1.2811                 2.5473
 Frc consts  --      1.8668                 1.0918                 2.2541
 IR Inten    --    366.2339               105.4732                44.9257

                     31                     32                     33
                      A                      A                      A
 Frequencies --   1242.1626              1249.7596              1335.5196
 Red. masses --      1.2298                 1.3617                 1.4177
 Frc consts  --      1.1180                 1.2531                 1.4898
 IR Inten    --     19.2065                 5.5701                18.3476

                     34                     35                     36
                      A                      A                      A
 Frequencies --   1387.8811              1393.0234              1406.0897
 Red. masses --      1.8303                 2.1727                 2.3713
 Frc consts  --      2.0772                 2.4841                 2.7623
 IR Inten    --    111.0782                 0.8479                39.0218

                     37                     38                     39
                      A                      A                      A
 Frequencies --   1433.0217              1497.9696              1543.6737
 Red. masses --      2.2332                 1.1540                 2.9293
 Frc consts  --      2.7019                 1.5257                 4.1126
 IR Inten    --     82.3575                21.0260                33.5194

                     40                     41                     42
                      A                      A                      A
 Frequencies --   1580.8035              1618.2310              1706.1678
 Red. masses --      2.9402                 5.4519                 5.2634
 Frc consts  --      4.3290                 8.4115                 9.0274
 IR Inten    --    107.7285                36.9002               259.1525

                     43                     44                     45
                      A                      A                      A
 Frequencies --   1866.4046              3102.0365              3169.5272
 Red. masses --     10.9168                 1.0654                 1.1020
 Frc consts  --     22.4056                 6.0402                 6.5226
 IR Inten    --    241.3904                 3.4425                 0.5099

                     46                     47                     48
                      A                      A                      A
 Frequencies --   3226.2325              3252.3508              3255.6459
 Red. masses --      1.0925                 1.0929                 1.0961
 Frc consts  --      6.6997                 6.8113                 6.8453
 IR Inten    --      1.3829                 7.8050                 3.4509

                     49                     50                     51
                      A                      A                      A
 Frequencies --   3276.1768              3667.7750              3714.4399
 Red. masses --      1.0971                 1.0646                 1.0667
 Frc consts  --      6.9378                 8.4378                 8.6714
 IR Inten    --      6.3064               139.2744               166.6806

 - Thermochemistry -
 -------------------
 Temperature     0.001 Kelvin.  Pressure   1.00000 Atm.
 Atom     1 has atomic number  6 and mass  12.00000

 Molecular mass:   154.05042 amu.
 Principal axes and moments of inertia in atomic units:
                           1         2         3
     Eigenvalues --   553.087843129.044863386.32364
           X            0.99998   0.00025  -0.00653
           Y           -0.00057   0.99880  -0.04895
           Z            0.00651   0.04895   0.99878
 This molecule is an asymmetric top.
 Rotational symmetry number  1.
 Warning -- assumption of classical behavior for rotation
           may cause significant error
 Rotational temperatures (Kelvin)      0.15660     0.02768     0.02558
 Rotational constants (GHZ):           3.26303     0.57677     0.53295
 Zero-point vibrational energy     394794.8 (Joules/Mol)
                                   94.35823 (Kcal/Mol)
 Vibrational temperatures:     64.96    75.58   121.27   264.49   458.77
          (Kelvin)            478.66   502.09   595.13   641.77   731.83
                              734.67   756.89   778.90   930.76   970.61
                              985.67  1043.66  1182.03  1197.83  1229.81
                             1267.45  1278.90  1388.85  1399.51  1438.87
                             1522.24  1645.07  1710.22  1730.37  1763.26
                             1787.19  1798.13  1921.51  1996.85  2004.25
                             2023.05  2061.80  2155.24  2221.00  2274.42
                             2328.27  2454.79  2685.34  4463.14  4560.24
                             4641.83  4679.41  4684.15  4713.69  5277.11
                             5344.25

 Zero-point correction=                           0.150369 (Hartree/Particle)
 Thermal correction to Energy=                    0.150369
 Thermal correction to Enthalpy=                  0.150369
 Thermal correction to Gibbs Free Energy=         0.150369
 Sum of electronic and zero-point Energies=           -551.611025
 Sum of electronic and thermal Energies=              -551.611025
 Sum of electronic and thermal Enthalpies=            -551.611025
 Sum of electronic and thermal Free Energies=         -551.611025

                     E (Thermal)             CV                S
                      KCal/Mol        Cal/Mol-Kelvin    Cal/Mol-Kelvin
 Total                   94.358              5.962            -29.041
 Electronic               0.000              0.000              0.000
 Translational            0.000              2.981            -21.617
 Rotational               0.000              2.981             -7.424
 Vibrational             94.358              0.000              0.000

 Optimization completed.
    -- Stationary point found.
 Normal termination of Gaussian 16 at Mon Oct 14 13:43:15 2019.
